V -t * -v 1.0a5 -a 0
A -t * -n 1 -p 0 -o 0x7fffffff -c 30 -a 1
A -t * -h 1 -m 1073741823 -s 0
c -t * -i 1 -n Blue
c -t * -i 2 -n Red
n -t * -a 0 -s 0 -S UP -v circle -c black -i black
n -t * -a 1 -s 1 -S UP -v circle -c black -i black
n -t * -a 2 -s 2 -S UP -v circle -c black -i black
l -t * -s 0 -d 1 -S UP -r 400000 -D 0.080000000000000002 -c black
l -t * -s 1 -d 2 -S UP -r 40000 -D 0.080000000000000002 -c black
+ -t 0.1 -s 0 -d 1 -p sctp -e 56 -c 1 -i 2 -a 1 -x {0.0 2.0 -1 ------- null}
- -t 0.1 -s 0 -d 1 -p sctp -e 56 -c 1 -i 2 -a 1 -x {0.0 2.0 -1 ------- null}
h -t 0.1 -s 0 -d 1 -p sctp -e 56 -c 1 -i 2 -a 1 -x {0.0 2.0 -1 ------- null}
r -t 0.18112 -s 0 -d 1 -p sctp -e 56 -c 1 -i 2 -a 1 -x {0.0 2.0 -1 ------- null}
+ -t 0.18112 -s 1 -d 2 -p sctp -e 56 -c 1 -i 2 -a 1 -x {0.0 2.0 -1 ------- null}
- -t 0.18112 -s 1 -d 2 -p sctp -e 56 -c 1 -i 2 -a 1 -x {0.0 2.0 -1 ------- null}
h -t 0.18112 -s 1 -d 2 -p sctp -e 56 -c 1 -i 2 -a 1 -x {0.0 2.0 -1 ------- null}
r -t 0.27232 -s 1 -d 2 -p sctp -e 56 -c 1 -i 2 -a 1 -x {0.0 2.0 -1 ------- null}
+ -t 0.27232 -s 2 -d 1 -p sctp -e 56 -c 0 -i 3 -a 0 -x {2.0 0.0 -1 ------- null}
- -t 0.27232 -s 2 -d 1 -p sctp -e 56 -c 0 -i 3 -a 0 -x {2.0 0.0 -1 ------- null}
h -t 0.27232 -s 2 -d 1 -p sctp -e 56 -c 0 -i 3 -a 0 -x {2.0 0.0 -1 ------- null}
r -t 0.36352 -s 2 -d 1 -p sctp -e 56 -c 0 -i 3 -a 0 -x {2.0 0.0 -1 ------- null}
+ -t 0.36352 -s 1 -d 0 -p sctp -e 56 -c 0 -i 3 -a 0 -x {2.0 0.0 -1 ------- null}
- -t 0.36352 -s 1 -d 0 -p sctp -e 56 -c 0 -i 3 -a 0 -x {2.0 0.0 -1 ------- null}
h -t 0.36352 -s 1 -d 0 -p sctp -e 56 -c 0 -i 3 -a 0 -x {2.0 0.0 -1 ------- null}
r -t 0.44464 -s 1 -d 0 -p sctp -e 56 -c 0 -i 3 -a 0 -x {2.0 0.0 -1 ------- null}
+ -t 0.44464 -s 0 -d 1 -p sctp -e 36 -c 1 -i 4 -a 1 -x {0.0 2.0 -1 ------- null}
- -t 0.44464 -s 0 -d 1 -p sctp -e 36 -c 1 -i 4 -a 1 -x {0.0 2.0 -1 ------- null}
h -t 0.44464 -s 0 -d 1 -p sctp -e 36 -c 1 -i 4 -a 1 -x {0.0 2.0 -1 ------- null}
r -t 0.52536 -s 0 -d 1 -p sctp -e 36 -c 1 -i 4 -a 1 -x {0.0 2.0 -1 ------- null}
+ -t 0.52536 -s 1 -d 2 -p sctp -e 36 -c 1 -i 4 -a 1 -x {0.0 2.0 -1 ------- null}
- -t 0.52536 -s 1 -d 2 -p sctp -e 36 -c 1 -i 4 -a 1 -x {0.0 2.0 -1 ------- null}
h -t 0.52536 -s 1 -d 2 -p sctp -e 36 -c 1 -i 4 -a 1 -x {0.0 2.0 -1 ------- null}
r -t 0.61256 -s 1 -d 2 -p sctp -e 36 -c 1 -i 4 -a 1 -x {0.0 2.0 -1 ------- null}
+ -t 0.61256 -s 2 -d 1 -p sctp -e 36 -c 0 -i 5 -a 0 -x {2.0 0.0 -1 ------- null}
- -t 0.61256 -s 2 -d 1 -p sctp -e 36 -c 0 -i 5 -a 0 -x {2.0 0.0 -1 ------- null}
h -t 0.61256 -s 2 -d 1 -p sctp -e 36 -c 0 -i 5 -a 0 -x {2.0 0.0 -1 ------- null}
r -t 0.69976 -s 2 -d 1 -p sctp -e 36 -c 0 -i 5 -a 0 -x {2.0 0.0 -1 ------- null}
+ -t 0.69976 -s 1 -d 0 -p sctp -e 36 -c 0 -i 5 -a 0 -x {2.0 0.0 -1 ------- null}
- -t 0.69976 -s 1 -d 0 -p sctp -e 36 -c 0 -i 5 -a 0 -x {2.0 0.0 -1 ------- null}
h -t 0.69976 -s 1 -d 0 -p sctp -e 36 -c 0 -i 5 -a 0 -x {2.0 0.0 -1 ------- null}
r -t 0.78048 -s 1 -d 0 -p sctp -e 36 -c 0 -i 5 -a 0 -x {2.0 0.0 -1 ------- null}
+ -t 0.78048 -s 0 -d 1 -p sctp -e 56 -c 1 -i 6 -a 1 -x {0.0 2.0 -1 ------- null}
- -t 0.78048 -s 0 -d 1 -p sctp -e 56 -c 1 -i 6 -a 1 -x {0.0 2.0 -1 ------- null}
h -t 0.78048 -s 0 -d 1 -p sctp -e 56 -c 1 -i 6 -a 1 -x {0.0 2.0 -1 ------- null}
r -t 0.8616 -s 0 -d 1 -p sctp -e 56 -c 1 -i 6 -a 1 -x {0.0 2.0 -1 ------- null}
+ -t 0.8616 -s 1 -d 2 -p sctp -e 56 -c 1 -i 6 -a 1 -x {0.0 2.0 -1 ------- null}
- -t 0.8616 -s 1 -d 2 -p sctp -e 56 -c 1 -i 6 -a 1 -x {0.0 2.0 -1 ------- null}
h -t 0.8616 -s 1 -d 2 -p sctp -e 56 -c 1 -i 6 -a 1 -x {0.0 2.0 -1 ------- null}
r -t 0.9528 -s 1 -d 2 -p sctp -e 56 -c 1 -i 6 -a 1 -x {0.0 2.0 -1 ------- null}
+ -t 0.9528 -s 2 -d 1 -p sctp -e 56 -c 0 -i 7 -a 0 -x {2.0 0.0 -1 ------- null}
- -t 0.9528 -s 2 -d 1 -p sctp -e 56 -c 0 -i 7 -a 0 -x {2.0 0.0 -1 ------- null}
h -t 0.9528 -s 2 -d 1 -p sctp -e 56 -c 0 -i 7 -a 0 -x {2.0 0.0 -1 ------- null}
r -t 1.044 -s 2 -d 1 -p sctp -e 56 -c 0 -i 7 -a 0 -x {2.0 0.0 -1 ------- null}
+ -t 1.044 -s 1 -d 0 -p sctp -e 56 -c 0 -i 7 -a 0 -x {2.0 0.0 -1 ------- null}
- -t 1.044 -s 1 -d 0 -p sctp -e 56 -c 0 -i 7 -a 0 -x {2.0 0.0 -1 ------- null}
h -t 1.044 -s 1 -d 0 -p sctp -e 56 -c 0 -i 7 -a 0 -x {2.0 0.0 -1 ------- null}
r -t 1.12512 -s 1 -d 0 -p sctp -e 56 -c 0 -i 7 -a 0 -x {2.0 0.0 -1 ------- null}
+ -t 1.12512 -s 0 -d 1 -p sctp -e 1500 -c 1 -i 8 -a 1 -x {0.0 2.0 -1 ------- null}
- -t 1.12512 -s 0 -d 1 -p sctp -e 1500 -c 1 -i 8 -a 1 -x {0.0 2.0 -1 ------- null}
h -t 1.12512 -s 0 -d 1 -p sctp -e 1500 -c 1 -i 8 -a 1 -x {0.0 2.0 -1 ------- null}
+ -t 1.12512 -s 0 -d 1 -p sctp -e 1500 -c 1 -i 9 -a 1 -x {0.0 2.0 -1 ------- null}
+ -t 1.12512 -s 0 -d 1 -p sctp -e 1500 -c 1 -i 10 -a 1 -x {0.0 2.0 -1 ------- null}
- -t 1.15512 -s 0 -d 1 -p sctp -e 1500 -c 1 -i 9 -a 1 -x {0.0 2.0 -1 ------- null}
h -t 1.15512 -s 0 -d 1 -p sctp -e 1500 -c 1 -i 9 -a 1 -x {0.0 2.0 -1 ------- null}
- -t 1.18512 -s 0 -d 1 -p sctp -e 1500 -c 1 -i 10 -a 1 -x {0.0 2.0 -1 ------- null}
h -t 1.18512 -s 0 -d 1 -p sctp -e 1500 -c 1 -i 10 -a 1 -x {0.0 2.0 -1 ------- null}
r -t 1.23512 -s 0 -d 1 -p sctp -e 1500 -c 1 -i 8 -a 1 -x {0.0 2.0 -1 ------- null}
+ -t 1.23512 -s 1 -d 2 -p sctp -e 1500 -c 1 -i 8 -a 1 -x {0.0 2.0 -1 ------- null}
- -t 1.23512 -s 1 -d 2 -p sctp -e 1500 -c 1 -i 8 -a 1 -x {0.0 2.0 -1 ------- null}
h -t 1.23512 -s 1 -d 2 -p sctp -e 1500 -c 1 -i 8 -a 1 -x {0.0 2.0 -1 ------- null}
r -t 1.26512 -s 0 -d 1 -p sctp -e 1500 -c 1 -i 9 -a 1 -x {0.0 2.0 -1 ------- null}
+ -t 1.26512 -s 1 -d 2 -p sctp -e 1500 -c 1 -i 9 -a 1 -x {0.0 2.0 -1 ------- null}
r -t 1.29512 -s 0 -d 1 -p sctp -e 1500 -c 1 -i 10 -a 1 -x {0.0 2.0 -1 ------- null}
+ -t 1.29512 -s 1 -d 2 -p sctp -e 1500 -c 1 -i 10 -a 1 -x {0.0 2.0 -1 ------- null}
- -t 1.53512 -s 1 -d 2 -p sctp -e 1500 -c 1 -i 9 -a 1 -x {0.0 2.0 -1 ------- null}
h -t 1.53512 -s 1 -d 2 -p sctp -e 1500 -c 1 -i 9 -a 1 -x {0.0 2.0 -1 ------- null}
r -t 1.61512 -s 1 -d 2 -p sctp -e 1500 -c 1 -i 8 -a 1 -x {0.0 2.0 -1 ------- null}
+ -t 1.61512 -s 2 -d 1 -p sctp -e 48 -c 0 -i 11 -a 0 -x {2.0 0.0 -1 ------- null}
- -t 1.61512 -s 2 -d 1 -p sctp -e 48 -c 0 -i 11 -a 0 -x {2.0 0.0 -1 ------- null}
h -t 1.61512 -s 2 -d 1 -p sctp -e 48 -c 0 -i 11 -a 0 -x {2.0 0.0 -1 ------- null}
r -t 1.70472 -s 2 -d 1 -p sctp -e 48 -c 0 -i 11 -a 0 -x {2.0 0.0 -1 ------- null}
+ -t 1.70472 -s 1 -d 0 -p sctp -e 48 -c 0 -i 11 -a 0 -x {2.0 0.0 -1 ------- null}
- -t 1.70472 -s 1 -d 0 -p sctp -e 48 -c 0 -i 11 -a 0 -x {2.0 0.0 -1 ------- null}
h -t 1.70472 -s 1 -d 0 -p sctp -e 48 -c 0 -i 11 -a 0 -x {2.0 0.0 -1 ------- null}
r -t 1.78568 -s 1 -d 0 -p sctp -e 48 -c 0 -i 11 -a 0 -x {2.0 0.0 -1 ------- null}
+ -t 1.78568 -s 0 -d 1 -p sctp -e 1500 -c 1 -i 12 -a 1 -x {0.0 2.0 -1 ------- null}
- -t 1.78568 -s 0 -d 1 -p sctp -e 1500 -c 1 -i 12 -a 1 -x {0.0 2.0 -1 ------- null}
h -t 1.78568 -s 0 -d 1 -p sctp -e 1500 -c 1 -i 12 -a 1 -x {0.0 2.0 -1 ------- null}
+ -t 1.78568 -s 0 -d 1 -p sctp -e 1500 -c 1 -i 13 -a 1 -x {0.0 2.0 -1 ------- null}
- -t 1.81568 -s 0 -d 1 -p sctp -e 1500 -c 1 -i 13 -a 1 -x {0.0 2.0 -1 ------- null}
h -t 1.81568 -s 0 -d 1 -p sctp -e 1500 -c 1 -i 13 -a 1 -x {0.0 2.0 -1 ------- null}
- -t 1.83512 -s 1 -d 2 -p sctp -e 1500 -c 1 -i 10 -a 1 -x {0.0 2.0 -1 ------- null}
h -t 1.83512 -s 1 -d 2 -p sctp -e 1500 -c 1 -i 10 -a 1 -x {0.0 2.0 -1 ------- null}
r -t 1.89568 -s 0 -d 1 -p sctp -e 1500 -c 1 -i 12 -a 1 -x {0.0 2.0 -1 ------- null}
+ -t 1.89568 -s 1 -d 2 -p sctp -e 1500 -c 1 -i 12 -a 1 -x {0.0 2.0 -1 ------- null}
r -t 1.91512 -s 1 -d 2 -p sctp -e 1500 -c 1 -i 9 -a 1 -x {0.0 2.0 -1 ------- null}
r -t 1.92568 -s 0 -d 1 -p sctp -e 1500 -c 1 -i 13 -a 1 -x {0.0 2.0 -1 ------- null}
+ -t 1.92568 -s 1 -d 2 -p sctp -e 1500 -c 1 -i 13 -a 1 -x {0.0 2.0 -1 ------- null}
+ -t 2.11512 -s 2 -d 1 -p sctp -e 48 -c 0 -i 14 -a 0 -x {2.0 0.0 -1 ------- null}
- -t 2.11512 -s 2 -d 1 -p sctp -e 48 -c 0 -i 14 -a 0 -x {2.0 0.0 -1 ------- null}
h -t 2.11512 -s 2 -d 1 -p sctp -e 48 -c 0 -i 14 -a 0 -x {2.0 0.0 -1 ------- null}
- -t 2.13512 -s 1 -d 2 -p sctp -e 1500 -c 1 -i 12 -a 1 -x {0.0 2.0 -1 ------- null}
h -t 2.13512 -s 1 -d 2 -p sctp -e 1500 -c 1 -i 12 -a 1 -x {0.0 2.0 -1 ------- null}
r -t 2.20472 -s 2 -d 1 -p sctp -e 48 -c 0 -i 14 -a 0 -x {2.0 0.0 -1 ------- null}
+ -t 2.20472 -s 1 -d 0 -p sctp -e 48 -c 0 -i 14 -a 0 -x {2.0 0.0 -1 ------- null}
- -t 2.20472 -s 1 -d 0 -p sctp -e 48 -c 0 -i 14 -a 0 -x {2.0 0.0 -1 ------- null}
h -t 2.20472 -s 1 -d 0 -p sctp -e 48 -c 0 -i 14 -a 0 -x {2.0 0.0 -1 ------- null}
r -t 2.21512 -s 1 -d 2 -p sctp -e 1500 -c 1 -i 10 -a 1 -x {0.0 2.0 -1 ------- null}
r -t 2.28568 -s 1 -d 0 -p sctp -e 48 -c 0 -i 14 -a 0 -x {2.0 0.0 -1 ------- null}
+ -t 2.28568 -s 0 -d 1 -p sctp -e 1500 -c 1 -i 15 -a 1 -x {0.0 2.0 -1 ------- null}
- -t 2.28568 -s 0 -d 1 -p sctp -e 1500 -c 1 -i 15 -a 1 -x {0.0 2.0 -1 ------- null}
h -t 2.28568 -s 0 -d 1 -p sctp -e 1500 -c 1 -i 15 -a 1 -x {0.0 2.0 -1 ------- null}
+ -t 2.28568 -s 0 -d 1 -p sctp -e 1500 -c 1 -i 16 -a 1 -x {0.0 2.0 -1 ------- null}
- -t 2.31568 -s 0 -d 1 -p sctp -e 1500 -c 1 -i 16 -a 1 -x {0.0 2.0 -1 ------- null}
h -t 2.31568 -s 0 -d 1 -p sctp -e 1500 -c 1 -i 16 -a 1 -x {0.0 2.0 -1 ------- null}
r -t 2.39568 -s 0 -d 1 -p sctp -e 1500 -c 1 -i 15 -a 1 -x {0.0 2.0 -1 ------- null}
+ -t 2.39568 -s 1 -d 2 -p sctp -e 1500 -c 1 -i 15 -a 1 -x {0.0 2.0 -1 ------- null}
+ -t 2.41512 -s 2 -d 1 -p sctp -e 48 -c 0 -i 17 -a 0 -x {2.0 0.0 -1 ------- null}
- -t 2.41512 -s 2 -d 1 -p sctp -e 48 -c 0 -i 17 -a 0 -x {2.0 0.0 -1 ------- null}
h -t 2.41512 -s 2 -d 1 -p sctp -e 48 -c 0 -i 17 -a 0 -x {2.0 0.0 -1 ------- null}
r -t 2.42568 -s 0 -d 1 -p sctp -e 1500 -c 1 -i 16 -a 1 -x {0.0 2.0 -1 ------- null}
+ -t 2.42568 -s 1 -d 2 -p sctp -e 1500 -c 1 -i 16 -a 1 -x {0.0 2.0 -1 ------- null}
- -t 2.43512 -s 1 -d 2 -p sctp -e 1500 -c 1 -i 13 -a 1 -x {0.0 2.0 -1 ------- null}
h -t 2.43512 -s 1 -d 2 -p sctp -e 1500 -c 1 -i 13 -a 1 -x {0.0 2.0 -1 ------- null}
r -t 2.50472 -s 2 -d 1 -p sctp -e 48 -c 0 -i 17 -a 0 -x {2.0 0.0 -1 ------- null}
+ -t 2.50472 -s 1 -d 0 -p sctp -e 48 -c 0 -i 17 -a 0 -x {2.0 0.0 -1 ------- null}
- -t 2.50472 -s 1 -d 0 -p sctp -e 48 -c 0 -i 17 -a 0 -x {2.0 0.0 -1 ------- null}
h -t 2.50472 -s 1 -d 0 -p sctp -e 48 -c 0 -i 17 -a 0 -x {2.0 0.0 -1 ------- null}
r -t 2.51512 -s 1 -d 2 -p sctp -e 1500 -c 1 -i 12 -a 1 -x {0.0 2.0 -1 ------- null}
r -t 2.58568 -s 1 -d 0 -p sctp -e 48 -c 0 -i 17 -a 0 -x {2.0 0.0 -1 ------- null}
+ -t 2.58568 -s 0 -d 1 -p sctp -e 1500 -c 1 -i 18 -a 1 -x {0.0 2.0 -1 ------- null}
- -t 2.58568 -s 0 -d 1 -p sctp -e 1500 -c 1 -i 18 -a 1 -x {0.0 2.0 -1 ------- null}
h -t 2.58568 -s 0 -d 1 -p sctp -e 1500 -c 1 -i 18 -a 1 -x {0.0 2.0 -1 ------- null}
+ -t 2.58568 -s 0 -d 1 -p sctp -e 1500 -c 1 -i 19 -a 1 -x {0.0 2.0 -1 ------- null}
- -t 2.61568 -s 0 -d 1 -p sctp -e 1500 -c 1 -i 19 -a 1 -x {0.0 2.0 -1 ------- null}
h -t 2.61568 -s 0 -d 1 -p sctp -e 1500 -c 1 -i 19 -a 1 -x {0.0 2.0 -1 ------- null}
r -t 2.69568 -s 0 -d 1 -p sctp -e 1500 -c 1 -i 18 -a 1 -x {0.0 2.0 -1 ------- null}
+ -t 2.69568 -s 1 -d 2 -p sctp -e 1500 -c 1 -i 18 -a 1 -x {0.0 2.0 -1 ------- null}
+ -t 2.71512 -s 2 -d 1 -p sctp -e 48 -c 0 -i 20 -a 0 -x {2.0 0.0 -1 ------- null}
- -t 2.71512 -s 2 -d 1 -p sctp -e 48 -c 0 -i 20 -a 0 -x {2.0 0.0 -1 ------- null}
h -t 2.71512 -s 2 -d 1 -p sctp -e 48 -c 0 -i 20 -a 0 -x {2.0 0.0 -1 ------- null}
r -t 2.72568 -s 0 -d 1 -p sctp -e 1500 -c 1 -i 19 -a 1 -x {0.0 2.0 -1 ------- null}
+ -t 2.72568 -s 1 -d 2 -p sctp -e 1500 -c 1 -i 19 -a 1 -x {0.0 2.0 -1 ------- null}
- -t 2.73512 -s 1 -d 2 -p sctp -e 1500 -c 1 -i 15 -a 1 -x {0.0 2.0 -1 ------- null}
h -t 2.73512 -s 1 -d 2 -p sctp -e 1500 -c 1 -i 15 -a 1 -x {0.0 2.0 -1 ------- null}
r -t 2.80472 -s 2 -d 1 -p sctp -e 48 -c 0 -i 20 -a 0 -x {2.0 0.0 -1 ------- null}
+ -t 2.80472 -s 1 -d 0 -p sctp -e 48 -c 0 -i 20 -a 0 -x {2.0 0.0 -1 ------- null}
- -t 2.80472 -s 1 -d 0 -p sctp -e 48 -c 0 -i 20 -a 0 -x {2.0 0.0 -1 ------- null}
h -t 2.80472 -s 1 -d 0 -p sctp -e 48 -c 0 -i 20 -a 0 -x {2.0 0.0 -1 ------- null}
r -t 2.81512 -s 1 -d 2 -p sctp -e 1500 -c 1 -i 13 -a 1 -x {0.0 2.0 -1 ------- null}
r -t 2.88568 -s 1 -d 0 -p sctp -e 48 -c 0 -i 20 -a 0 -x {2.0 0.0 -1 ------- null}
+ -t 2.88568 -s 0 -d 1 -p sctp -e 1500 -c 1 -i 21 -a 1 -x {0.0 2.0 -1 ------- null}
- -t 2.88568 -s 0 -d 1 -p sctp -e 1500 -c 1 -i 21 -a 1 -x {0.0 2.0 -1 ------- null}
h -t 2.88568 -s 0 -d 1 -p sctp -e 1500 -c 1 -i 21 -a 1 -x {0.0 2.0 -1 ------- null}
+ -t 2.88568 -s 0 -d 1 -p sctp -e 1500 -c 1 -i 22 -a 1 -x {0.0 2.0 -1 ------- null}
- -t 2.91568 -s 0 -d 1 -p sctp -e 1500 -c 1 -i 22 -a 1 -x {0.0 2.0 -1 ------- null}
h -t 2.91568 -s 0 -d 1 -p sctp -e 1500 -c 1 -i 22 -a 1 -x {0.0 2.0 -1 ------- null}
r -t 2.99568 -s 0 -d 1 -p sctp -e 1500 -c 1 -i 21 -a 1 -x {0.0 2.0 -1 ------- null}
+ -t 2.99568 -s 1 -d 2 -p sctp -e 1500 -c 1 -i 21 -a 1 -x {0.0 2.0 -1 ------- null}
+ -t 3.01512 -s 2 -d 1 -p sctp -e 48 -c 0 -i 23 -a 0 -x {2.0 0.0 -1 ------- null}
- -t 3.01512 -s 2 -d 1 -p sctp -e 48 -c 0 -i 23 -a 0 -x {2.0 0.0 -1 ------- null}
h -t 3.01512 -s 2 -d 1 -p sctp -e 48 -c 0 -i 23 -a 0 -x {2.0 0.0 -1 ------- null}
r -t 3.02568 -s 0 -d 1 -p sctp -e 1500 -c 1 -i 22 -a 1 -x {0.0 2.0 -1 ------- null}
+ -t 3.02568 -s 1 -d 2 -p sctp -e 1500 -c 1 -i 22 -a 1 -x {0.0 2.0 -1 ------- null}
- -t 3.03512 -s 1 -d 2 -p sctp -e 1500 -c 1 -i 16 -a 1 -x {0.0 2.0 -1 ------- null}
h -t 3.03512 -s 1 -d 2 -p sctp -e 1500 -c 1 -i 16 -a 1 -x {0.0 2.0 -1 ------- null}
r -t 3.10472 -s 2 -d 1 -p sctp -e 48 -c 0 -i 23 -a 0 -x {2.0 0.0 -1 ------- null}
+ -t 3.10472 -s 1 -d 0 -p sctp -e 48 -c 0 -i 23 -a 0 -x {2.0 0.0 -1 ------- null}
- -t 3.10472 -s 1 -d 0 -p sctp -e 48 -c 0 -i 23 -a 0 -x {2.0 0.0 -1 ------- null}
h -t 3.10472 -s 1 -d 0 -p sctp -e 48 -c 0 -i 23 -a 0 -x {2.0 0.0 -1 ------- null}
r -t 3.11512 -s 1 -d 2 -p sctp -e 1500 -c 1 -i 15 -a 1 -x {0.0 2.0 -1 ------- null}
r -t 3.18568 -s 1 -d 0 -p sctp -e 48 -c 0 -i 23 -a 0 -x {2.0 0.0 -1 ------- null}
+ -t 3.18568 -s 0 -d 1 -p sctp -e 1500 -c 1 -i 24 -a 1 -x {0.0 2.0 -1 ------- null}
- -t 3.18568 -s 0 -d 1 -p sctp -e 1500 -c 1 -i 24 -a 1 -x {0.0 2.0 -1 ------- null}
h -t 3.18568 -s 0 -d 1 -p sctp -e 1500 -c 1 -i 24 -a 1 -x {0.0 2.0 -1 ------- null}
+ -t 3.18568 -s 0 -d 1 -p sctp -e 1500 -c 1 -i 25 -a 1 -x {0.0 2.0 -1 ------- null}
- -t 3.21568 -s 0 -d 1 -p sctp -e 1500 -c 1 -i 25 -a 1 -x {0.0 2.0 -1 ------- null}
h -t 3.21568 -s 0 -d 1 -p sctp -e 1500 -c 1 -i 25 -a 1 -x {0.0 2.0 -1 ------- null}
r -t 3.29568 -s 0 -d 1 -p sctp -e 1500 -c 1 -i 24 -a 1 -x {0.0 2.0 -1 ------- null}
+ -t 3.29568 -s 1 -d 2 -p sctp -e 1500 -c 1 -i 24 -a 1 -x {0.0 2.0 -1 ------- null}
+ -t 3.31512 -s 2 -d 1 -p sctp -e 48 -c 0 -i 26 -a 0 -x {2.0 0.0 -1 ------- null}
- -t 3.31512 -s 2 -d 1 -p sctp -e 48 -c 0 -i 26 -a 0 -x {2.0 0.0 -1 ------- null}
h -t 3.31512 -s 2 -d 1 -p sctp -e 48 -c 0 -i 26 -a 0 -x {2.0 0.0 -1 ------- null}
r -t 3.32568 -s 0 -d 1 -p sctp -e 1500 -c 1 -i 25 -a 1 -x {0.0 2.0 -1 ------- null}
+ -t 3.32568 -s 1 -d 2 -p sctp -e 1500 -c 1 -i 25 -a 1 -x {0.0 2.0 -1 ------- null}
- -t 3.33512 -s 1 -d 2 -p sctp -e 1500 -c 1 -i 18 -a 1 -x {0.0 2.0 -1 ------- null}
h -t 3.33512 -s 1 -d 2 -p sctp -e 1500 -c 1 -i 18 -a 1 -x {0.0 2.0 -1 ------- null}
r -t 3.40472 -s 2 -d 1 -p sctp -e 48 -c 0 -i 26 -a 0 -x {2.0 0.0 -1 ------- null}
+ -t 3.40472 -s 1 -d 0 -p sctp -e 48 -c 0 -i 26 -a 0 -x {2.0 0.0 -1 ------- null}
- -t 3.40472 -s 1 -d 0 -p sctp -e 48 -c 0 -i 26 -a 0 -x {2.0 0.0 -1 ------- null}
h -t 3.40472 -s 1 -d 0 -p sctp -e 48 -c 0 -i 26 -a 0 -x {2.0 0.0 -1 ------- null}
r -t 3.41512 -s 1 -d 2 -p sctp -e 1500 -c 1 -i 16 -a 1 -x {0.0 2.0 -1 ------- null}
r -t 3.48568 -s 1 -d 0 -p sctp -e 48 -c 0 -i 26 -a 0 -x {2.0 0.0 -1 ------- null}
+ -t 3.48568 -s 0 -d 1 -p sctp -e 1500 -c 1 -i 27 -a 1 -x {0.0 2.0 -1 ------- null}
- -t 3.48568 -s 0 -d 1 -p sctp -e 1500 -c 1 -i 27 -a 1 -x {0.0 2.0 -1 ------- null}
h -t 3.48568 -s 0 -d 1 -p sctp -e 1500 -c 1 -i 27 -a 1 -x {0.0 2.0 -1 ------- null}
+ -t 3.48568 -s 0 -d 1 -p sctp -e 1500 -c 1 -i 28 -a 1 -x {0.0 2.0 -1 ------- null}
- -t 3.51568 -s 0 -d 1 -p sctp -e 1500 -c 1 -i 28 -a 1 -x {0.0 2.0 -1 ------- null}
h -t 3.51568 -s 0 -d 1 -p sctp -e 1500 -c 1 -i 28 -a 1 -x {0.0 2.0 -1 ------- null}
r -t 3.59568 -s 0 -d 1 -p sctp -e 1500 -c 1 -i 27 -a 1 -x {0.0 2.0 -1 ------- null}
+ -t 3.59568 -s 1 -d 2 -p sctp -e 1500 -c 1 -i 27 -a 1 -x {0.0 2.0 -1 ------- null}
+ -t 3.61512 -s 2 -d 1 -p sctp -e 48 -c 0 -i 29 -a 0 -x {2.0 0.0 -1 ------- null}
- -t 3.61512 -s 2 -d 1 -p sctp -e 48 -c 0 -i 29 -a 0 -x {2.0 0.0 -1 ------- null}
h -t 3.61512 -s 2 -d 1 -p sctp -e 48 -c 0 -i 29 -a 0 -x {2.0 0.0 -1 ------- null}
r -t 3.62568 -s 0 -d 1 -p sctp -e 1500 -c 1 -i 28 -a 1 -x {0.0 2.0 -1 ------- null}
+ -t 3.62568 -s 1 -d 2 -p sctp -e 1500 -c 1 -i 28 -a 1 -x {0.0 2.0 -1 ------- null}
- -t 3.63512 -s 1 -d 2 -p sctp -e 1500 -c 1 -i 19 -a 1 -x {0.0 2.0 -1 ------- null}
h -t 3.63512 -s 1 -d 2 -p sctp -e 1500 -c 1 -i 19 -a 1 -x {0.0 2.0 -1 ------- null}
r -t 3.70472 -s 2 -d 1 -p sctp -e 48 -c 0 -i 29 -a 0 -x {2.0 0.0 -1 ------- null}
+ -t 3.70472 -s 1 -d 0 -p sctp -e 48 -c 0 -i 29 -a 0 -x {2.0 0.0 -1 ------- null}
- -t 3.70472 -s 1 -d 0 -p sctp -e 48 -c 0 -i 29 -a 0 -x {2.0 0.0 -1 ------- null}
h -t 3.70472 -s 1 -d 0 -p sctp -e 48 -c 0 -i 29 -a 0 -x {2.0 0.0 -1 ------- null}
r -t 3.71512 -s 1 -d 2 -p sctp -e 1500 -c 1 -i 18 -a 1 -x {0.0 2.0 -1 ------- null}
r -t 3.78568 -s 1 -d 0 -p sctp -e 48 -c 0 -i 29 -a 0 -x {2.0 0.0 -1 ------- null}
+ -t 3.78568 -s 0 -d 1 -p sctp -e 1500 -c 1 -i 30 -a 1 -x {0.0 2.0 -1 ------- null}
- -t 3.78568 -s 0 -d 1 -p sctp -e 1500 -c 1 -i 30 -a 1 -x {0.0 2.0 -1 ------- null}
h -t 3.78568 -s 0 -d 1 -p sctp -e 1500 -c 1 -i 30 -a 1 -x {0.0 2.0 -1 ------- null}
+ -t 3.78568 -s 0 -d 1 -p sctp -e 1500 -c 1 -i 31 -a 1 -x {0.0 2.0 -1 ------- null}
- -t 3.81568 -s 0 -d 1 -p sctp -e 1500 -c 1 -i 31 -a 1 -x {0.0 2.0 -1 ------- null}
h -t 3.81568 -s 0 -d 1 -p sctp -e 1500 -c 1 -i 31 -a 1 -x {0.0 2.0 -1 ------- null}
r -t 3.89568 -s 0 -d 1 -p sctp -e 1500 -c 1 -i 30 -a 1 -x {0.0 2.0 -1 ------- null}
+ -t 3.89568 -s 1 -d 2 -p sctp -e 1500 -c 1 -i 30 -a 1 -x {0.0 2.0 -1 ------- null}
+ -t 3.91512 -s 2 -d 1 -p sctp -e 48 -c 0 -i 32 -a 0 -x {2.0 0.0 -1 ------- null}
- -t 3.91512 -s 2 -d 1 -p sctp -e 48 -c 0 -i 32 -a 0 -x {2.0 0.0 -1 ------- null}
h -t 3.91512 -s 2 -d 1 -p sctp -e 48 -c 0 -i 32 -a 0 -x {2.0 0.0 -1 ------- null}
r -t 3.92568 -s 0 -d 1 -p sctp -e 1500 -c 1 -i 31 -a 1 -x {0.0 2.0 -1 ------- null}
+ -t 3.92568 -s 1 -d 2 -p sctp -e 1500 -c 1 -i 31 -a 1 -x {0.0 2.0 -1 ------- null}
- -t 3.93512 -s 1 -d 2 -p sctp -e 1500 -c 1 -i 21 -a 1 -x {0.0 2.0 -1 ------- null}
h -t 3.93512 -s 1 -d 2 -p sctp -e 1500 -c 1 -i 21 -a 1 -x {0.0 2.0 -1 ------- null}
r -t 4.00472 -s 2 -d 1 -p sctp -e 48 -c 0 -i 32 -a 0 -x {2.0 0.0 -1 ------- null}
+ -t 4.00472 -s 1 -d 0 -p sctp -e 48 -c 0 -i 32 -a 0 -x {2.0 0.0 -1 ------- null}
- -t 4.00472 -s 1 -d 0 -p sctp -e 48 -c 0 -i 32 -a 0 -x {2.0 0.0 -1 ------- null}
h -t 4.00472 -s 1 -d 0 -p sctp -e 48 -c 0 -i 32 -a 0 -x {2.0 0.0 -1 ------- null}
r -t 4.01512 -s 1 -d 2 -p sctp -e 1500 -c 1 -i 19 -a 1 -x {0.0 2.0 -1 ------- null}
r -t 4.08568 -s 1 -d 0 -p sctp -e 48 -c 0 -i 32 -a 0 -x {2.0 0.0 -1 ------- null}
+ -t 4.08568 -s 0 -d 1 -p sctp -e 1500 -c 1 -i 33 -a 1 -x {0.0 2.0 -1 ------- null}
- -t 4.08568 -s 0 -d 1 -p sctp -e 1500 -c 1 -i 33 -a 1 -x {0.0 2.0 -1 ------- null}
h -t 4.08568 -s 0 -d 1 -p sctp -e 1500 -c 1 -i 33 -a 1 -x {0.0 2.0 -1 ------- null}
+ -t 4.08568 -s 0 -d 1 -p sctp -e 1500 -c 1 -i 34 -a 1 -x {0.0 2.0 -1 ------- null}
- -t 4.11568 -s 0 -d 1 -p sctp -e 1500 -c 1 -i 34 -a 1 -x {0.0 2.0 -1 ------- null}
h -t 4.11568 -s 0 -d 1 -p sctp -e 1500 -c 1 -i 34 -a 1 -x {0.0 2.0 -1 ------- null}
r -t 4.19568 -s 0 -d 1 -p sctp -e 1500 -c 1 -i 33 -a 1 -x {0.0 2.0 -1 ------- null}
+ -t 4.19568 -s 1 -d 2 -p sctp -e 1500 -c 1 -i 33 -a 1 -x {0.0 2.0 -1 ------- null}
+ -t 4.21512 -s 2 -d 1 -p sctp -e 48 -c 0 -i 35 -a 0 -x {2.0 0.0 -1 ------- null}
- -t 4.21512 -s 2 -d 1 -p sctp -e 48 -c 0 -i 35 -a 0 -x {2.0 0.0 -1 ------- null}
h -t 4.21512 -s 2 -d 1 -p sctp -e 48 -c 0 -i 35 -a 0 -x {2.0 0.0 -1 ------- null}
r -t 4.22568 -s 0 -d 1 -p sctp -e 1500 -c 1 -i 34 -a 1 -x {0.0 2.0 -1 ------- null}
+ -t 4.22568 -s 1 -d 2 -p sctp -e 1500 -c 1 -i 34 -a 1 -x {0.0 2.0 -1 ------- null}
- -t 4.23512 -s 1 -d 2 -p sctp -e 1500 -c 1 -i 22 -a 1 -x {0.0 2.0 -1 ------- null}
h -t 4.23512 -s 1 -d 2 -p sctp -e 1500 -c 1 -i 22 -a 1 -x {0.0 2.0 -1 ------- null}
r -t 4.30472 -s 2 -d 1 -p sctp -e 48 -c 0 -i 35 -a 0 -x {2.0 0.0 -1 ------- null}
+ -t 4.30472 -s 1 -d 0 -p sctp -e 48 -c 0 -i 35 -a 0 -x {2.0 0.0 -1 ------- null}
- -t 4.30472 -s 1 -d 0 -p sctp -e 48 -c 0 -i 35 -a 0 -x {2.0 0.0 -1 ------- null}
h -t 4.30472 -s 1 -d 0 -p sctp -e 48 -c 0 -i 35 -a 0 -x {2.0 0.0 -1 ------- null}
r -t 4.31512 -s 1 -d 2 -p sctp -e 1500 -c 1 -i 21 -a 1 -x {0.0 2.0 -1 ------- null}
r -t 4.38568 -s 1 -d 0 -p sctp -e 48 -c 0 -i 35 -a 0 -x {2.0 0.0 -1 ------- null}
+ -t 4.38568 -s 0 -d 1 -p sctp -e 1500 -c 1 -i 36 -a 1 -x {0.0 2.0 -1 ------- null}
- -t 4.38568 -s 0 -d 1 -p sctp -e 1500 -c 1 -i 36 -a 1 -x {0.0 2.0 -1 ------- null}
h -t 4.38568 -s 0 -d 1 -p sctp -e 1500 -c 1 -i 36 -a 1 -x {0.0 2.0 -1 ------- null}
+ -t 4.38568 -s 0 -d 1 -p sctp -e 1500 -c 1 -i 37 -a 1 -x {0.0 2.0 -1 ------- null}
- -t 4.41568 -s 0 -d 1 -p sctp -e 1500 -c 1 -i 37 -a 1 -x {0.0 2.0 -1 ------- null}
h -t 4.41568 -s 0 -d 1 -p sctp -e 1500 -c 1 -i 37 -a 1 -x {0.0 2.0 -1 ------- null}
r -t 4.49568 -s 0 -d 1 -p sctp -e 1500 -c 1 -i 36 -a 1 -x {0.0 2.0 -1 ------- null}
+ -t 4.49568 -s 1 -d 2 -p sctp -e 1500 -c 1 -i 36 -a 1 -x {0.0 2.0 -1 ------- null}
+ -t 4.51512 -s 2 -d 1 -p sctp -e 48 -c 0 -i 38 -a 0 -x {2.0 0.0 -1 ------- null}
- -t 4.51512 -s 2 -d 1 -p sctp -e 48 -c 0 -i 38 -a 0 -x {2.0 0.0 -1 ------- null}
h -t 4.51512 -s 2 -d 1 -p sctp -e 48 -c 0 -i 38 -a 0 -x {2.0 0.0 -1 ------- null}
r -t 4.52568 -s 0 -d 1 -p sctp -e 1500 -c 1 -i 37 -a 1 -x {0.0 2.0 -1 ------- null}
+ -t 4.52568 -s 1 -d 2 -p sctp -e 1500 -c 1 -i 37 -a 1 -x {0.0 2.0 -1 ------- null}
- -t 4.53512 -s 1 -d 2 -p sctp -e 1500 -c 1 -i 24 -a 1 -x {0.0 2.0 -1 ------- null}
h -t 4.53512 -s 1 -d 2 -p sctp -e 1500 -c 1 -i 24 -a 1 -x {0.0 2.0 -1 ------- null}
r -t 4.60472 -s 2 -d 1 -p sctp -e 48 -c 0 -i 38 -a 0 -x {2.0 0.0 -1 ------- null}
+ -t 4.60472 -s 1 -d 0 -p sctp -e 48 -c 0 -i 38 -a 0 -x {2.0 0.0 -1 ------- null}
- -t 4.60472 -s 1 -d 0 -p sctp -e 48 -c 0 -i 38 -a 0 -x {2.0 0.0 -1 ------- null}
h -t 4.60472 -s 1 -d 0 -p sctp -e 48 -c 0 -i 38 -a 0 -x {2.0 0.0 -1 ------- null}
r -t 4.61512 -s 1 -d 2 -p sctp -e 1500 -c 1 -i 22 -a 1 -x {0.0 2.0 -1 ------- null}
r -t 4.68568 -s 1 -d 0 -p sctp -e 48 -c 0 -i 38 -a 0 -x {2.0 0.0 -1 ------- null}
+ -t 4.68568 -s 0 -d 1 -p sctp -e 1500 -c 1 -i 39 -a 1 -x {0.0 2.0 -1 ------- null}
- -t 4.68568 -s 0 -d 1 -p sctp -e 1500 -c 1 -i 39 -a 1 -x {0.0 2.0 -1 ------- null}
h -t 4.68568 -s 0 -d 1 -p sctp -e 1500 -c 1 -i 39 -a 1 -x {0.0 2.0 -1 ------- null}
+ -t 4.68568 -s 0 -d 1 -p sctp -e 1500 -c 1 -i 40 -a 1 -x {0.0 2.0 -1 ------- null}
- -t 4.71568 -s 0 -d 1 -p sctp -e 1500 -c 1 -i 40 -a 1 -x {0.0 2.0 -1 ------- null}
h -t 4.71568 -s 0 -d 1 -p sctp -e 1500 -c 1 -i 40 -a 1 -x {0.0 2.0 -1 ------- null}
r -t 4.79568 -s 0 -d 1 -p sctp -e 1500 -c 1 -i 39 -a 1 -x {0.0 2.0 -1 ------- null}
+ -t 4.79568 -s 1 -d 2 -p sctp -e 1500 -c 1 -i 39 -a 1 -x {0.0 2.0 -1 ------- null}
+ -t 4.81512 -s 2 -d 1 -p sctp -e 48 -c 0 -i 41 -a 0 -x {2.0 0.0 -1 ------- null}
- -t 4.81512 -s 2 -d 1 -p sctp -e 48 -c 0 -i 41 -a 0 -x {2.0 0.0 -1 ------- null}
h -t 4.81512 -s 2 -d 1 -p sctp -e 48 -c 0 -i 41 -a 0 -x {2.0 0.0 -1 ------- null}
r -t 4.82568 -s 0 -d 1 -p sctp -e 1500 -c 1 -i 40 -a 1 -x {0.0 2.0 -1 ------- null}
+ -t 4.82568 -s 1 -d 2 -p sctp -e 1500 -c 1 -i 40 -a 1 -x {0.0 2.0 -1 ------- null}
- -t 4.83512 -s 1 -d 2 -p sctp -e 1500 -c 1 -i 25 -a 1 -x {0.0 2.0 -1 ------- null}
h -t 4.83512 -s 1 -d 2 -p sctp -e 1500 -c 1 -i 25 -a 1 -x {0.0 2.0 -1 ------- null}
r -t 4.90472 -s 2 -d 1 -p sctp -e 48 -c 0 -i 41 -a 0 -x {2.0 0.0 -1 ------- null}
+ -t 4.90472 -s 1 -d 0 -p sctp -e 48 -c 0 -i 41 -a 0 -x {2.0 0.0 -1 ------- null}
- -t 4.90472 -s 1 -d 0 -p sctp -e 48 -c 0 -i 41 -a 0 -x {2.0 0.0 -1 ------- null}
h -t 4.90472 -s 1 -d 0 -p sctp -e 48 -c 0 -i 41 -a 0 -x {2.0 0.0 -1 ------- null}
r -t 4.91512 -s 1 -d 2 -p sctp -e 1500 -c 1 -i 24 -a 1 -x {0.0 2.0 -1 ------- null}
r -t 4.98568 -s 1 -d 0 -p sctp -e 48 -c 0 -i 41 -a 0 -x {2.0 0.0 -1 ------- null}
+ -t 4.98568 -s 0 -d 1 -p sctp -e 1500 -c 1 -i 42 -a 1 -x {0.0 2.0 -1 ------- null}
- -t 4.98568 -s 0 -d 1 -p sctp -e 1500 -c 1 -i 42 -a 1 -x {0.0 2.0 -1 ------- null}
h -t 4.98568 -s 0 -d 1 -p sctp -e 1500 -c 1 -i 42 -a 1 -x {0.0 2.0 -1 ------- null}
+ -t 4.98568 -s 0 -d 1 -p sctp -e 1500 -c 1 -i 43 -a 1 -x {0.0 2.0 -1 ------- null}
- -t 5.01568 -s 0 -d 1 -p sctp -e 1500 -c 1 -i 43 -a 1 -x {0.0 2.0 -1 ------- null}
h -t 5.01568 -s 0 -d 1 -p sctp -e 1500 -c 1 -i 43 -a 1 -x {0.0 2.0 -1 ------- null}
r -t 5.09568 -s 0 -d 1 -p sctp -e 1500 -c 1 -i 42 -a 1 -x {0.0 2.0 -1 ------- null}
+ -t 5.09568 -s 1 -d 2 -p sctp -e 1500 -c 1 -i 42 -a 1 -x {0.0 2.0 -1 ------- null}
+ -t 5.11512 -s 2 -d 1 -p sctp -e 48 -c 0 -i 44 -a 0 -x {2.0 0.0 -1 ------- null}
- -t 5.11512 -s 2 -d 1 -p sctp -e 48 -c 0 -i 44 -a 0 -x {2.0 0.0 -1 ------- null}
h -t 5.11512 -s 2 -d 1 -p sctp -e 48 -c 0 -i 44 -a 0 -x {2.0 0.0 -1 ------- null}
r -t 5.12568 -s 0 -d 1 -p sctp -e 1500 -c 1 -i 43 -a 1 -x {0.0 2.0 -1 ------- null}
+ -t 5.12568 -s 1 -d 2 -p sctp -e 1500 -c 1 -i 43 -a 1 -x {0.0 2.0 -1 ------- null}
- -t 5.13512 -s 1 -d 2 -p sctp -e 1500 -c 1 -i 27 -a 1 -x {0.0 2.0 -1 ------- null}
h -t 5.13512 -s 1 -d 2 -p sctp -e 1500 -c 1 -i 27 -a 1 -x {0.0 2.0 -1 ------- null}
r -t 5.20472 -s 2 -d 1 -p sctp -e 48 -c 0 -i 44 -a 0 -x {2.0 0.0 -1 ------- null}
+ -t 5.20472 -s 1 -d 0 -p sctp -e 48 -c 0 -i 44 -a 0 -x {2.0 0.0 -1 ------- null}
- -t 5.20472 -s 1 -d 0 -p sctp -e 48 -c 0 -i 44 -a 0 -x {2.0 0.0 -1 ------- null}
h -t 5.20472 -s 1 -d 0 -p sctp -e 48 -c 0 -i 44 -a 0 -x {2.0 0.0 -1 ------- null}
r -t 5.21512 -s 1 -d 2 -p sctp -e 1500 -c 1 -i 25 -a 1 -x {0.0 2.0 -1 ------- null}
r -t 5.28568 -s 1 -d 0 -p sctp -e 48 -c 0 -i 44 -a 0 -x {2.0 0.0 -1 ------- null}
+ -t 5.28568 -s 0 -d 1 -p sctp -e 1500 -c 1 -i 45 -a 1 -x {0.0 2.0 -1 ------- null}
- -t 5.28568 -s 0 -d 1 -p sctp -e 1500 -c 1 -i 45 -a 1 -x {0.0 2.0 -1 ------- null}
h -t 5.28568 -s 0 -d 1 -p sctp -e 1500 -c 1 -i 45 -a 1 -x {0.0 2.0 -1 ------- null}
+ -t 5.28568 -s 0 -d 1 -p sctp -e 1500 -c 1 -i 46 -a 1 -x {0.0 2.0 -1 ------- null}
- -t 5.31568 -s 0 -d 1 -p sctp -e 1500 -c 1 -i 46 -a 1 -x {0.0 2.0 -1 ------- null}
h -t 5.31568 -s 0 -d 1 -p sctp -e 1500 -c 1 -i 46 -a 1 -x {0.0 2.0 -1 ------- null}
r -t 5.39568 -s 0 -d 1 -p sctp -e 1500 -c 1 -i 45 -a 1 -x {0.0 2.0 -1 ------- null}
+ -t 5.39568 -s 1 -d 2 -p sctp -e 1500 -c 1 -i 45 -a 1 -x {0.0 2.0 -1 ------- null}
+ -t 5.41512 -s 2 -d 1 -p sctp -e 48 -c 0 -i 47 -a 0 -x {2.0 0.0 -1 ------- null}
- -t 5.41512 -s 2 -d 1 -p sctp -e 48 -c 0 -i 47 -a 0 -x {2.0 0.0 -1 ------- null}
h -t 5.41512 -s 2 -d 1 -p sctp -e 48 -c 0 -i 47 -a 0 -x {2.0 0.0 -1 ------- null}
r -t 5.42568 -s 0 -d 1 -p sctp -e 1500 -c 1 -i 46 -a 1 -x {0.0 2.0 -1 ------- null}
+ -t 5.42568 -s 1 -d 2 -p sctp -e 1500 -c 1 -i 46 -a 1 -x {0.0 2.0 -1 ------- null}
- -t 5.43512 -s 1 -d 2 -p sctp -e 1500 -c 1 -i 28 -a 1 -x {0.0 2.0 -1 ------- null}
h -t 5.43512 -s 1 -d 2 -p sctp -e 1500 -c 1 -i 28 -a 1 -x {0.0 2.0 -1 ------- null}
r -t 5.50472 -s 2 -d 1 -p sctp -e 48 -c 0 -i 47 -a 0 -x {2.0 0.0 -1 ------- null}
+ -t 5.50472 -s 1 -d 0 -p sctp -e 48 -c 0 -i 47 -a 0 -x {2.0 0.0 -1 ------- null}
- -t 5.50472 -s 1 -d 0 -p sctp -e 48 -c 0 -i 47 -a 0 -x {2.0 0.0 -1 ------- null}
h -t 5.50472 -s 1 -d 0 -p sctp -e 48 -c 0 -i 47 -a 0 -x {2.0 0.0 -1 ------- null}
r -t 5.51512 -s 1 -d 2 -p sctp -e 1500 -c 1 -i 27 -a 1 -x {0.0 2.0 -1 ------- null}
r -t 5.58568 -s 1 -d 0 -p sctp -e 48 -c 0 -i 47 -a 0 -x {2.0 0.0 -1 ------- null}
+ -t 5.58568 -s 0 -d 1 -p sctp -e 1500 -c 1 -i 48 -a 1 -x {0.0 2.0 -1 ------- null}
- -t 5.58568 -s 0 -d 1 -p sctp -e 1500 -c 1 -i 48 -a 1 -x {0.0 2.0 -1 ------- null}
h -t 5.58568 -s 0 -d 1 -p sctp -e 1500 -c 1 -i 48 -a 1 -x {0.0 2.0 -1 ------- null}
+ -t 5.58568 -s 0 -d 1 -p sctp -e 1500 -c 1 -i 49 -a 1 -x {0.0 2.0 -1 ------- null}
- -t 5.61568 -s 0 -d 1 -p sctp -e 1500 -c 1 -i 49 -a 1 -x {0.0 2.0 -1 ------- null}
h -t 5.61568 -s 0 -d 1 -p sctp -e 1500 -c 1 -i 49 -a 1 -x {0.0 2.0 -1 ------- null}
r -t 5.69568 -s 0 -d 1 -p sctp -e 1500 -c 1 -i 48 -a 1 -x {0.0 2.0 -1 ------- null}
+ -t 5.69568 -s 1 -d 2 -p sctp -e 1500 -c 1 -i 48 -a 1 -x {0.0 2.0 -1 ------- null}
+ -t 5.71512 -s 2 -d 1 -p sctp -e 48 -c 0 -i 50 -a 0 -x {2.0 0.0 -1 ------- null}
- -t 5.71512 -s 2 -d 1 -p sctp -e 48 -c 0 -i 50 -a 0 -x {2.0 0.0 -1 ------- null}
h -t 5.71512 -s 2 -d 1 -p sctp -e 48 -c 0 -i 50 -a 0 -x {2.0 0.0 -1 ------- null}
r -t 5.72568 -s 0 -d 1 -p sctp -e 1500 -c 1 -i 49 -a 1 -x {0.0 2.0 -1 ------- null}
+ -t 5.72568 -s 1 -d 2 -p sctp -e 1500 -c 1 -i 49 -a 1 -x {0.0 2.0 -1 ------- null}
- -t 5.73512 -s 1 -d 2 -p sctp -e 1500 -c 1 -i 30 -a 1 -x {0.0 2.0 -1 ------- null}
h -t 5.73512 -s 1 -d 2 -p sctp -e 1500 -c 1 -i 30 -a 1 -x {0.0 2.0 -1 ------- null}
r -t 5.80472 -s 2 -d 1 -p sctp -e 48 -c 0 -i 50 -a 0 -x {2.0 0.0 -1 ------- null}
+ -t 5.80472 -s 1 -d 0 -p sctp -e 48 -c 0 -i 50 -a 0 -x {2.0 0.0 -1 ------- null}
- -t 5.80472 -s 1 -d 0 -p sctp -e 48 -c 0 -i 50 -a 0 -x {2.0 0.0 -1 ------- null}
h -t 5.80472 -s 1 -d 0 -p sctp -e 48 -c 0 -i 50 -a 0 -x {2.0 0.0 -1 ------- null}
r -t 5.81512 -s 1 -d 2 -p sctp -e 1500 -c 1 -i 28 -a 1 -x {0.0 2.0 -1 ------- null}
r -t 5.88568 -s 1 -d 0 -p sctp -e 48 -c 0 -i 50 -a 0 -x {2.0 0.0 -1 ------- null}
+ -t 5.88568 -s 0 -d 1 -p sctp -e 1500 -c 1 -i 51 -a 1 -x {0.0 2.0 -1 ------- null}
- -t 5.88568 -s 0 -d 1 -p sctp -e 1500 -c 1 -i 51 -a 1 -x {0.0 2.0 -1 ------- null}
h -t 5.88568 -s 0 -d 1 -p sctp -e 1500 -c 1 -i 51 -a 1 -x {0.0 2.0 -1 ------- null}
+ -t 5.88568 -s 0 -d 1 -p sctp -e 1500 -c 1 -i 52 -a 1 -x {0.0 2.0 -1 ------- null}
- -t 5.91568 -s 0 -d 1 -p sctp -e 1500 -c 1 -i 52 -a 1 -x {0.0 2.0 -1 ------- null}