+ 0.1 0 1 sctp 56 ------- 0 0.0 3.0 -1 2
- 0.1 0 1 sctp 56 ------- 0 0.0 3.0 -1 2
r 0.120045 0 1 sctp 56 ------- 0 0.0 3.0 -1 2
+ 0.120045 1 2 sctp 56 ------- 0 0.0 3.0 -1 2
- 0.120045 1 2 sctp 56 ------- 0 0.0 3.0 -1 2
r 0.140493 1 2 sctp 56 ------- 0 0.0 3.0 -1 2
+ 0.140493 2 3 sctp 56 ------- 0 0.0 3.0 -1 2
- 0.140493 2 3 sctp 56 ------- 0 0.0 3.0 -1 2
r 0.160538 2 3 sctp 56 ------- 0 0.0 3.0 -1 2
+ 0.160538 3 2 sctp 56 ------- 0 3.0 0.0 -1 3
- 0.160538 3 2 sctp 56 ------- 0 3.0 0.0 -1 3
r 0.180582 3 2 sctp 56 ------- 0 3.0 0.0 -1 3
+ 0.180582 2 1 sctp 56 ------- 0 3.0 0.0 -1 3
- 0.180582 2 1 sctp 56 ------- 0 3.0 0.0 -1 3
r 0.20103 2 1 sctp 56 ------- 0 3.0 0.0 -1 3
+ 0.20103 1 0 sctp 56 ------- 0 3.0 0.0 -1 3
- 0.20103 1 0 sctp 56 ------- 0 3.0 0.0 -1 3
r 0.221075 1 0 sctp 56 ------- 0 3.0 0.0 -1 3
+ 0.221075 0 1 sctp 36 ------- 0 0.0 3.0 -1 4
- 0.221075 0 1 sctp 36 ------- 0 0.0 3.0 -1 4
r 0.241104 0 1 sctp 36 ------- 0 0.0 3.0 -1 4
+ 0.241104 1 2 sctp 36 ------- 0 0.0 3.0 -1 4
- 0.241104 1 2 sctp 36 ------- 0 0.0 3.0 -1 4
r 0.261392 1 2 sctp 36 ------- 0 0.0 3.0 -1 4
+ 0.261392 2 3 sctp 36 ------- 0 0.0 3.0 -1 4
- 0.261392 2 3 sctp 36 ------- 0 0.0 3.0 -1 4
r 0.281421 2 3 sctp 36 ------- 0 0.0 3.0 -1 4
+ 0.281421 3 2 sctp 36 ------- 0 3.0 0.0 -1 5
- 0.281421 3 2 sctp 36 ------- 0 3.0 0.0 -1 5
r 0.30145 3 2 sctp 36 ------- 0 3.0 0.0 -1 5
+ 0.30145 2 1 sctp 36 ------- 0 3.0 0.0 -1 5
- 0.30145 2 1 sctp 36 ------- 0 3.0 0.0 -1 5
r 0.321738 2 1 sctp 36 ------- 0 3.0 0.0 -1 5
+ 0.321738 1 0 sctp 36 ------- 0 3.0 0.0 -1 5
- 0.321738 1 0 sctp 36 ------- 0 3.0 0.0 -1 5
r 0.341766 1 0 sctp 36 ------- 0 3.0 0.0 -1 5
+ 0.341766 0 1 sctp 56 ------- 0 0.0 3.0 -1 6
- 0.341766 0 1 sctp 56 ------- 0 0.0 3.0 -1 6
r 0.361811 0 1 sctp 56 ------- 0 0.0 3.0 -1 6
+ 0.361811 1 2 sctp 56 ------- 0 0.0 3.0 -1 6
- 0.361811 1 2 sctp 56 ------- 0 0.0 3.0 -1 6
r 0.382259 1 2 sctp 56 ------- 0 0.0 3.0 -1 6
+ 0.382259 2 3 sctp 56 ------- 0 0.0 3.0 -1 6
- 0.382259 2 3 sctp 56 ------- 0 0.0 3.0 -1 6
r 0.402304 2 3 sctp 56 ------- 0 0.0 3.0 -1 6
+ 0.402304 3 2 sctp 56 ------- 0 3.0 0.0 -1 7
- 0.402304 3 2 sctp 56 ------- 0 3.0 0.0 -1 7
r 0.422349 3 2 sctp 56 ------- 0 3.0 0.0 -1 7
+ 0.422349 2 1 sctp 56 ------- 0 3.0 0.0 -1 7
- 0.422349 2 1 sctp 56 ------- 0 3.0 0.0 -1 7
r 0.442797 2 1 sctp 56 ------- 0 3.0 0.0 -1 7
+ 0.442797 1 0 sctp 56 ------- 0 3.0 0.0 -1 7
- 0.442797 1 0 sctp 56 ------- 0 3.0 0.0 -1 7
r 0.462842 1 0 sctp 56 ------- 0 3.0 0.0 -1 7
+ 0.462842 0 1 sctp 1500 ------- 0 0.0 3.0 -1 8
- 0.462842 0 1 sctp 1500 ------- 0 0.0 3.0 -1 8
+ 0.462842 0 1 sctp 1500 ------- 0 0.0 3.0 -1 9
+ 0.462842 0 1 sctp 1500 ------- 0 0.0 3.0 -1 10
- 0.464042 0 1 sctp 1500 ------- 0 0.0 3.0 -1 9
- 0.465242 0 1 sctp 1500 ------- 0 0.0 3.0 -1 10
r 0.484042 0 1 sctp 1500 ------- 0 0.0 3.0 -1 8
+ 0.484042 1 2 sctp 1500 ------- 0 0.0 3.0 -1 8
- 0.484042 1 2 sctp 1500 ------- 0 0.0 3.0 -1 8
r 0.485242 0 1 sctp 1500 ------- 0 0.0 3.0 -1 9
+ 0.485242 1 2 sctp 1500 ------- 0 0.0 3.0 -1 9
r 0.486442 0 1 sctp 1500 ------- 0 0.0 3.0 -1 10
+ 0.486442 1 2 sctp 1500 ------- 0 0.0 3.0 -1 10
- 0.496042 1 2 sctp 1500 ------- 0 0.0 3.0 -1 9
- 0.508042 1 2 sctp 1500 ------- 0 0.0 3.0 -1 10
r 0.516042 1 2 sctp 1500 ------- 0 0.0 3.0 -1 8
+ 0.516042 2 3 sctp 1500 ------- 0 0.0 3.0 -1 8
- 0.516042 2 3 sctp 1500 ------- 0 0.0 3.0 -1 8
r 0.528042 1 2 sctp 1500 ------- 0 0.0 3.0 -1 9
+ 0.528042 2 3 sctp 1500 ------- 0 0.0 3.0 -1 9
- 0.528042 2 3 sctp 1500 ------- 0 0.0 3.0 -1 9
r 0.537242 2 3 sctp 1500 ------- 0 0.0 3.0 -1 8
+ 0.537242 3 2 sctp 48 ------- 0 3.0 0.0 -1 11
- 0.537242 3 2 sctp 48 ------- 0 3.0 0.0 -1 11
r 0.540042 1 2 sctp 1500 ------- 0 0.0 3.0 -1 10
+ 0.540042 2 3 sctp 1500 ------- 0 0.0 3.0 -1 10
- 0.540042 2 3 sctp 1500 ------- 0 0.0 3.0 -1 10
r 0.549242 2 3 sctp 1500 ------- 0 0.0 3.0 -1 9
r 0.55728 3 2 sctp 48 ------- 0 3.0 0.0 -1 11
+ 0.55728 2 1 sctp 48 ------- 0 3.0 0.0 -1 11
- 0.55728 2 1 sctp 48 ------- 0 3.0 0.0 -1 11
r 0.561242 2 3 sctp 1500 ------- 0 0.0 3.0 -1 10
+ 0.561242 3 2 sctp 48 ------- 0 3.0 0.0 -1 12
- 0.561242 3 2 sctp 48 ------- 0 3.0 0.0 -1 12
r 0.577664 2 1 sctp 48 ------- 0 3.0 0.0 -1 11
+ 0.577664 1 0 sctp 48 ------- 0 3.0 0.0 -1 11
- 0.577664 1 0 sctp 48 ------- 0 3.0 0.0 -1 11
r 0.58128 3 2 sctp 48 ------- 0 3.0 0.0 -1 12
+ 0.58128 2 1 sctp 48 ------- 0 3.0 0.0 -1 12
- 0.58128 2 1 sctp 48 ------- 0 3.0 0.0 -1 12
r 0.597702 1 0 sctp 48 ------- 0 3.0 0.0 -1 11
+ 0.597702 0 1 sctp 1500 ------- 0 0.0 3.0 -1 13
- 0.597702 0 1 sctp 1500 ------- 0 0.0 3.0 -1 13
+ 0.597702 0 1 sctp 1500 ------- 0 0.0 3.0 -1 14
- 0.598902 0 1 sctp 1500 ------- 0 0.0 3.0 -1 14
r 0.601664 2 1 sctp 48 ------- 0 3.0 0.0 -1 12
+ 0.601664 1 0 sctp 48 ------- 0 3.0 0.0 -1 12
- 0.601664 1 0 sctp 48 ------- 0 3.0 0.0 -1 12
r 0.618902 0 1 sctp 1500 ------- 0 0.0 3.0 -1 13
+ 0.618902 1 2 sctp 1500 ------- 0 0.0 3.0 -1 13
- 0.618902 1 2 sctp 1500 ------- 0 0.0 3.0 -1 13
r 0.620102 0 1 sctp 1500 ------- 0 0.0 3.0 -1 14
+ 0.620102 1 2 sctp 1500 ------- 0 0.0 3.0 -1 14
r 0.621702 1 0 sctp 48 ------- 0 3.0 0.0 -1 12
+ 0.621702 0 1 sctp 1500 ------- 0 0.0 3.0 -1 15
- 0.621702 0 1 sctp 1500 ------- 0 0.0 3.0 -1 15
+ 0.621702 0 1 sctp 1500 ------- 0 0.0 3.0 -1 16
+ 0.621702 0 1 sctp 1500 ------- 0 0.0 3.0 -1 17
- 0.622902 0 1 sctp 1500 ------- 0 0.0 3.0 -1 16
- 0.624102 0 1 sctp 1500 ------- 0 0.0 3.0 -1 17
- 0.630902 1 2 sctp 1500 ------- 0 0.0 3.0 -1 14
r 0.642902 0 1 sctp 1500 ------- 0 0.0 3.0 -1 15
+ 0.642902 1 2 sctp 1500 ------- 0 0.0 3.0 -1 15
- 0.642902 1 2 sctp 1500 ------- 0 0.0 3.0 -1 15
r 0.644102 0 1 sctp 1500 ------- 0 0.0 3.0 -1 16
+ 0.644102 1 2 sctp 1500 ------- 0 0.0 3.0 -1 16
r 0.645302 0 1 sctp 1500 ------- 0 0.0 3.0 -1 17
+ 0.645302 1 2 sctp 1500 ------- 0 0.0 3.0 -1 17
r 0.650902 1 2 sctp 1500 ------- 0 0.0 3.0 -1 13
+ 0.650902 2 3 sctp 1500 ------- 0 0.0 3.0 -1 13
- 0.650902 2 3 sctp 1500 ------- 0 0.0 3.0 -1 13
- 0.654902 1 2 sctp 1500 ------- 0 0.0 3.0 -1 16
r 0.662902 1 2 sctp 1500 ------- 0 0.0 3.0 -1 14
+ 0.662902 2 3 sctp 1500 ------- 0 0.0 3.0 -1 14
- 0.662902 2 3 sctp 1500 ------- 0 0.0 3.0 -1 14
- 0.666902 1 2 sctp 1500 ------- 0 0.0 3.0 -1 17
r 0.672102 2 3 sctp 1500 ------- 0 0.0 3.0 -1 13
r 0.674902 1 2 sctp 1500 ------- 0 0.0 3.0 -1 15
+ 0.674902 2 3 sctp 1500 ------- 0 0.0 3.0 -1 15
- 0.674902 2 3 sctp 1500 ------- 0 0.0 3.0 -1 15
r 0.684102 2 3 sctp 1500 ------- 0 0.0 3.0 -1 14
+ 0.684102 3 2 sctp 48 ------- 0 3.0 0.0 -1 18
- 0.684102 3 2 sctp 48 ------- 0 3.0 0.0 -1 18
r 0.686902 1 2 sctp 1500 ------- 0 0.0 3.0 -1 16
+ 0.686902 2 3 sctp 1500 ------- 0 0.0 3.0 -1 16
- 0.686902 2 3 sctp 1500 ------- 0 0.0 3.0 -1 16
r 0.696102 2 3 sctp 1500 ------- 0 0.0 3.0 -1 15
r 0.698902 1 2 sctp 1500 ------- 0 0.0 3.0 -1 17
+ 0.698902 2 3 sctp 1500 ------- 0 0.0 3.0 -1 17
- 0.698902 2 3 sctp 1500 ------- 0 0.0 3.0 -1 17
r 0.704141 3 2 sctp 48 ------- 0 3.0 0.0 -1 18
+ 0.704141 2 1 sctp 48 ------- 0 3.0 0.0 -1 18
- 0.704141 2 1 sctp 48 ------- 0 3.0 0.0 -1 18
r 0.708102 2 3 sctp 1500 ------- 0 0.0 3.0 -1 16
+ 0.708102 3 2 sctp 48 ------- 0 3.0 0.0 -1 19
- 0.708102 3 2 sctp 48 ------- 0 3.0 0.0 -1 19
r 0.720102 2 3 sctp 1500 ------- 0 0.0 3.0 -1 17
r 0.724525 2 1 sctp 48 ------- 0 3.0 0.0 -1 18
+ 0.724525 1 0 sctp 48 ------- 0 3.0 0.0 -1 18
- 0.724525 1 0 sctp 48 ------- 0 3.0 0.0 -1 18
r 0.728141 3 2 sctp 48 ------- 0 3.0 0.0 -1 19
+ 0.728141 2 1 sctp 48 ------- 0 3.0 0.0 -1 19
- 0.728141 2 1 sctp 48 ------- 0 3.0 0.0 -1 19
r 0.744563 1 0 sctp 48 ------- 0 3.0 0.0 -1 18
+ 0.744563 0 1 sctp 1500 ------- 0 0.0 3.0 -1 20
- 0.744563 0 1 sctp 1500 ------- 0 0.0 3.0 -1 20
+ 0.744563 0 1 sctp 1500 ------- 0 0.0 3.0 -1 21
+ 0.744563 0 1 sctp 1500 ------- 0 0.0 3.0 -1 22
- 0.745763 0 1 sctp 1500 ------- 0 0.0 3.0 -1 21
- 0.746963 0 1 sctp 1500 ------- 0 0.0 3.0 -1 22
r 0.748525 2 1 sctp 48 ------- 0 3.0 0.0 -1 19
+ 0.748525 1 0 sctp 48 ------- 0 3.0 0.0 -1 19
- 0.748525 1 0 sctp 48 ------- 0 3.0 0.0 -1 19
r 0.765763 0 1 sctp 1500 ------- 0 0.0 3.0 -1 20
+ 0.765763 1 2 sctp 1500 ------- 0 0.0 3.0 -1 20
- 0.765763 1 2 sctp 1500 ------- 0 0.0 3.0 -1 20
r 0.766963 0 1 sctp 1500 ------- 0 0.0 3.0 -1 21
+ 0.766963 1 2 sctp 1500 ------- 0 0.0 3.0 -1 21
r 0.768163 0 1 sctp 1500 ------- 0 0.0 3.0 -1 22
+ 0.768163 1 2 sctp 1500 ------- 0 0.0 3.0 -1 22
r 0.768563 1 0 sctp 48 ------- 0 3.0 0.0 -1 19
+ 0.768563 0 1 sctp 1500 ------- 0 0.0 3.0 -1 23
- 0.768563 0 1 sctp 1500 ------- 0 0.0 3.0 -1 23
+ 0.768563 0 1 sctp 1500 ------- 0 0.0 3.0 -1 24
+ 0.768563 0 1 sctp 1500 ------- 0 0.0 3.0 -1 25
- 0.769763 0 1 sctp 1500 ------- 0 0.0 3.0 -1 24
- 0.770963 0 1 sctp 1500 ------- 0 0.0 3.0 -1 25
- 0.777763 1 2 sctp 1500 ------- 0 0.0 3.0 -1 21
r 0.789763 0 1 sctp 1500 ------- 0 0.0 3.0 -1 23
+ 0.789763 1 2 sctp 1500 ------- 0 0.0 3.0 -1 23
- 0.789763 1 2 sctp 1500 ------- 0 0.0 3.0 -1 22
r 0.790963 0 1 sctp 1500 ------- 0 0.0 3.0 -1 24
+ 0.790963 1 2 sctp 1500 ------- 0 0.0 3.0 -1 24
r 0.792163 0 1 sctp 1500 ------- 0 0.0 3.0 -1 25
+ 0.792163 1 2 sctp 1500 ------- 0 0.0 3.0 -1 25
r 0.797763 1 2 sctp 1500 ------- 0 0.0 3.0 -1 20
+ 0.797763 2 3 sctp 1500 ------- 0 0.0 3.0 -1 20
- 0.797763 2 3 sctp 1500 ------- 0 0.0 3.0 -1 20
- 0.801763 1 2 sctp 1500 ------- 0 0.0 3.0 -1 23
r 0.809763 1 2 sctp 1500 ------- 0 0.0 3.0 -1 21
+ 0.809763 2 3 sctp 1500 ------- 0 0.0 3.0 -1 21
- 0.809763 2 3 sctp 1500 ------- 0 0.0 3.0 -1 21
- 0.813763 1 2 sctp 1500 ------- 0 0.0 3.0 -1 24
r 0.818963 2 3 sctp 1500 ------- 0 0.0 3.0 -1 20
+ 0.818963 3 2 sctp 48 ------- 0 3.0 0.0 -1 26
- 0.818963 3 2 sctp 48 ------- 0 3.0 0.0 -1 26
r 0.821763 1 2 sctp 1500 ------- 0 0.0 3.0 -1 22
+ 0.821763 2 3 sctp 1500 ------- 0 0.0 3.0 -1 22
- 0.821763 2 3 sctp 1500 ------- 0 0.0 3.0 -1 22
- 0.825763 1 2 sctp 1500 ------- 0 0.0 3.0 -1 25
r 0.830963 2 3 sctp 1500 ------- 0 0.0 3.0 -1 21
r 0.833763 1 2 sctp 1500 ------- 0 0.0 3.0 -1 23
+ 0.833763 2 3 sctp 1500 ------- 0 0.0 3.0 -1 23
- 0.833763 2 3 sctp 1500 ------- 0 0.0 3.0 -1 23
r 0.839002 3 2 sctp 48 ------- 0 3.0 0.0 -1 26
+ 0.839002 2 1 sctp 48 ------- 0 3.0 0.0 -1 26
- 0.839002 2 1 sctp 48 ------- 0 3.0 0.0 -1 26
r 0.842963 2 3 sctp 1500 ------- 0 0.0 3.0 -1 22
+ 0.842963 3 2 sctp 48 ------- 0 3.0 0.0 -1 27
- 0.842963 3 2 sctp 48 ------- 0 3.0 0.0 -1 27
r 0.845763 1 2 sctp 1500 ------- 0 0.0 3.0 -1 24
+ 0.845763 2 3 sctp 1500 ------- 0 0.0 3.0 -1 24
- 0.845763 2 3 sctp 1500 ------- 0 0.0 3.0 -1 24
r 0.854963 2 3 sctp 1500 ------- 0 0.0 3.0 -1 23
r 0.857763 1 2 sctp 1500 ------- 0 0.0 3.0 -1 25
+ 0.857763 2 3 sctp 1500 ------- 0 0.0 3.0 -1 25
- 0.857763 2 3 sctp 1500 ------- 0 0.0 3.0 -1 25
r 0.859386 2 1 sctp 48 ------- 0 3.0 0.0 -1 26
+ 0.859386 1 0 sctp 48 ------- 0 3.0 0.0 -1 26
- 0.859386 1 0 sctp 48 ------- 0 3.0 0.0 -1 26
r 0.863002 3 2 sctp 48 ------- 0 3.0 0.0 -1 27
+ 0.863002 2 1 sctp 48 ------- 0 3.0 0.0 -1 27
- 0.863002 2 1 sctp 48 ------- 0 3.0 0.0 -1 27
r 0.866963 2 3 sctp 1500 ------- 0 0.0 3.0 -1 24
+ 0.866963 3 2 sctp 48 ------- 0 3.0 0.0 -1 28
- 0.866963 3 2 sctp 48 ------- 0 3.0 0.0 -1 28
r 0.878963 2 3 sctp 1500 ------- 0 0.0 3.0 -1 25
r 0.879424 1 0 sctp 48 ------- 0 3.0 0.0 -1 26
+ 0.879424 0 1 sctp 1500 ------- 0 0.0 3.0 -1 29
- 0.879424 0 1 sctp 1500 ------- 0 0.0 3.0 -1 29
+ 0.879424 0 1 sctp 1500 ------- 0 0.0 3.0 -1 30
+ 0.879424 0 1 sctp 1500 ------- 0 0.0 3.0 -1 31
- 0.880624 0 1 sctp 1500 ------- 0 0.0 3.0 -1 30
- 0.881824 0 1 sctp 1500 ------- 0 0.0 3.0 -1 31
r 0.883386 2 1 sctp 48 ------- 0 3.0 0.0 -1 27
+ 0.883386 1 0 sctp 48 ------- 0 3.0 0.0 -1 27
- 0.883386 1 0 sctp 48 ------- 0 3.0 0.0 -1 27
r 0.887002 3 2 sctp 48 ------- 0 3.0 0.0 -1 28
+ 0.887002 2 1 sctp 48 ------- 0 3.0 0.0 -1 28
- 0.887002 2 1 sctp 48 ------- 0 3.0 0.0 -1 28
r 0.900624 0 1 sctp 1500 ------- 0 0.0 3.0 -1 29
+ 0.900624 1 2 sctp 1500 ------- 0 0.0 3.0 -1 29
- 0.900624 1 2 sctp 1500 ------- 0 0.0 3.0 -1 29
r 0.901824 0 1 sctp 1500 ------- 0 0.0 3.0 -1 30
+ 0.901824 1 2 sctp 1500 ------- 0 0.0 3.0 -1 30
r 0.903024 0 1 sctp 1500 ------- 0 0.0 3.0 -1 31
+ 0.903024 1 2 sctp 1500 ------- 0 0.0 3.0 -1 31
r 0.903424 1 0 sctp 48 ------- 0 3.0 0.0 -1 27
+ 0.903424 0 1 sctp 1500 ------- 0 0.0 3.0 -1 32
- 0.903424 0 1 sctp 1500 ------- 0 0.0 3.0 -1 32
+ 0.903424 0 1 sctp 1500 ------- 0 0.0 3.0 -1 33
+ 0.903424 0 1 sctp 1500 ------- 0 0.0 3.0 -1 34
- 0.904624 0 1 sctp 1500 ------- 0 0.0 3.0 -1 33
- 0.905824 0 1 sctp 1500 ------- 0 0.0 3.0 -1 34
r 0.907386 2 1 sctp 48 ------- 0 3.0 0.0 -1 28
+ 0.907386 1 0 sctp 48 ------- 0 3.0 0.0 -1 28
- 0.907386 1 0 sctp 48 ------- 0 3.0 0.0 -1 28
- 0.912624 1 2 sctp 1500 ------- 0 0.0 3.0 -1 30
r 0.924624 0 1 sctp 1500 ------- 0 0.0 3.0 -1 32
+ 0.924624 1 2 sctp 1500 ------- 0 0.0 3.0 -1 32
- 0.924624 1 2 sctp 1500 ------- 0 0.0 3.0 -1 31
r 0.925824 0 1 sctp 1500 ------- 0 0.0 3.0 -1 33
+ 0.925824 1 2 sctp 1500 ------- 0 0.0 3.0 -1 33
r 0.927024 0 1 sctp 1500 ------- 0 0.0 3.0 -1 34
+ 0.927024 1 2 sctp 1500 ------- 0 0.0 3.0 -1 34
r 0.927424 1 0 sctp 48 ------- 0 3.0 0.0 -1 28
+ 0.927424 0 1 sctp 1500 ------- 0 0.0 3.0 -1 35
- 0.927424 0 1 sctp 1500 ------- 0 0.0 3.0 -1 35
+ 0.927424 0 1 sctp 1500 ------- 0 0.0 3.0 -1 36
+ 0.927424 0 1 sctp 1500 ------- 0 0.0 3.0 -1 37
- 0.928624 0 1 sctp 1500 ------- 0 0.0 3.0 -1 36
- 0.929824 0 1 sctp 1500 ------- 0 0.0 3.0 -1 37
r 0.932624 1 2 sctp 1500 ------- 0 0.0 3.0 -1 29
+ 0.932624 2 3 sctp 1500 ------- 0 0.0 3.0 -1 29
- 0.932624 2 3 sctp 1500 ------- 0 0.0 3.0 -1 29
- 0.936624 1 2 sctp 1500 ------- 0 0.0 3.0 -1 32
r 0.944624 1 2 sctp 1500 ------- 0 0.0 3.0 -1 30
+ 0.944624 2 3 sctp 1500 ------- 0 0.0 3.0 -1 30
- 0.944624 2 3 sctp 1500 ------- 0 0.0 3.0 -1 30
r 0.948624 0 1 sctp 1500 ------- 0 0.0 3.0 -1 35
+ 0.948624 1 2 sctp 1500 ------- 0 0.0 3.0 -1 35
- 0.948624 1 2 sctp 1500 ------- 0 0.0 3.0 -1 33
r 0.949824 0 1 sctp 1500 ------- 0 0.0 3.0 -1 36
+ 0.949824 1 2 sctp 1500 ------- 0 0.0 3.0 -1 36
r 0.951024 0 1 sctp 1500 ------- 0 0.0 3.0 -1 37
+ 0.951024 1 2 sctp 1500 ------- 0 0.0 3.0 -1 37
r 0.953824 2 3 sctp 1500 ------- 0 0.0 3.0 -1 29
+ 0.953824 3 2 sctp 48 ------- 0 3.0 0.0 -1 38
- 0.953824 3 2 sctp 48 ------- 0 3.0 0.0 -1 38
r 0.956624 1 2 sctp 1500 ------- 0 0.0 3.0 -1 31
+ 0.956624 2 3 sctp 1500 ------- 0 0.0 3.0 -1 31
- 0.956624 2 3 sctp 1500 ------- 0 0.0 3.0 -1 31
- 0.960624 1 2 sctp 1500 ------- 0 0.0 3.0 -1 34
r 0.965824 2 3 sctp 1500 ------- 0 0.0 3.0 -1 30
r 0.968624 1 2 sctp 1500 ------- 0 0.0 3.0 -1 32
+ 0.968624 2 3 sctp 1500 ------- 0 0.0 3.0 -1 32
- 0.968624 2 3 sctp 1500 ------- 0 0.0 3.0 -1 32
- 0.972624 1 2 sctp 1500 ------- 0 0.0 3.0 -1 35
r 0.973862 3 2 sctp 48 ------- 0 3.0 0.0 -1 38
+ 0.973862 2 1 sctp 48 ------- 0 3.0 0.0 -1 38
- 0.973862 2 1 sctp 48 ------- 0 3.0 0.0 -1 38
r 0.977824 2 3 sctp 1500 ------- 0 0.0 3.0 -1 31
+ 0.977824 3 2 sctp 48 ------- 0 3.0 0.0 -1 39
- 0.977824 3 2 sctp 48 ------- 0 3.0 0.0 -1 39
r 0.980624 1 2 sctp 1500 ------- 0 0.0 3.0 -1 33
+ 0.980624 2 3 sctp 1500 ------- 0 0.0 3.0 -1 33
- 0.980624 2 3 sctp 1500 ------- 0 0.0 3.0 -1 33
- 0.984624 1 2 sctp 1500 ------- 0 0.0 3.0 -1 36
r 0.989824 2 3 sctp 1500 ------- 0 0.0 3.0 -1 32
r 0.992624 1 2 sctp 1500 ------- 0 0.0 3.0 -1 34
+ 0.992624 2 3 sctp 1500 ------- 0 0.0 3.0 -1 34
- 0.992624 2 3 sctp 1500 ------- 0 0.0 3.0 -1 34
r 0.994246 2 1 sctp 48 ------- 0 3.0 0.0 -1 38
+ 0.994246 1 0 sctp 48 ------- 0 3.0 0.0 -1 38
- 0.994246 1 0 sctp 48 ------- 0 3.0 0.0 -1 38
- 0.996624 1 2 sctp 1500 ------- 0 0.0 3.0 -1 37
r 0.997862 3 2 sctp 48 ------- 0 3.0 0.0 -1 39
+ 0.997862 2 1 sctp 48 ------- 0 3.0 0.0 -1 39
- 0.997862 2 1 sctp 48 ------- 0 3.0 0.0 -1 39
r 1.001824 2 3 sctp 1500 ------- 0 0.0 3.0 -1 33
+ 1.001824 3 2 sctp 48 ------- 0 3.0 0.0 -1 40
- 1.001824 3 2 sctp 48 ------- 0 3.0 0.0 -1 40
r 1.004624 1 2 sctp 1500 ------- 0 0.0 3.0 -1 35
+ 1.004624 2 3 sctp 1500 ------- 0 0.0 3.0 -1 35
- 1.004624 2 3 sctp 1500 ------- 0 0.0 3.0 -1 35
r 1.013824 2 3 sctp 1500 ------- 0 0.0 3.0 -1 34
r 1.014285 1 0 sctp 48 ------- 0 3.0 0.0 -1 38
+ 1.014285 0 1 sctp 1500 ------- 0 0.0 3.0 -1 41
- 1.014285 0 1 sctp 1500 ------- 0 0.0 3.0 -1 41
+ 1.014285 0 1 sctp 1500 ------- 0 0.0 3.0 -1 42
+ 1.014285 0 1 sctp 1500 ------- 0 0.0 3.0 -1 43
- 1.015485 0 1 sctp 1500 ------- 0 0.0 3.0 -1 42
r 1.016624 1 2 sctp 1500 ------- 0 0.0 3.0 -1 36
+ 1.016624 2 3 sctp 1500 ------- 0 0.0 3.0 -1 36
- 1.016624 2 3 sctp 1500 ------- 0 0.0 3.0 -1 36
- 1.016685 0 1 sctp 1500 ------- 0 0.0 3.0 -1 43
r 1.018246 2 1 sctp 48 ------- 0 3.0 0.0 -1 39
+ 1.018246 1 0 sctp 48 ------- 0 3.0 0.0 -1 39
- 1.018246 1 0 sctp 48 ------- 0 3.0 0.0 -1 39
r 1.021862 3 2 sctp 48 ------- 0 3.0 0.0 -1 40
+ 1.021862 2 1 sctp 48 ------- 0 3.0 0.0 -1 40
- 1.021862 2 1 sctp 48 ------- 0 3.0 0.0 -1 40
r 1.025824 2 3 sctp 1500 ------- 0 0.0 3.0 -1 35
+ 1.025824 3 2 sctp 48 ------- 0 3.0 0.0 -1 44
- 1.025824 3 2 sctp 48 ------- 0 3.0 0.0 -1 44
r 1.028624 1 2 sctp 1500 ------- 0 0.0 3.0 -1 37
+ 1.028624 2 3 sctp 1500 ------- 0 0.0 3.0 -1 37
- 1.028624 2 3 sctp 1500 ------- 0 0.0 3.0 -1 37
r 1.035485 0 1 sctp 1500 ------- 0 0.0 3.0 -1 41
+ 1.035485 1 2 sctp 1500 ------- 0 0.0 3.0 -1 41
- 1.035485 1 2 sctp 1500 ------- 0 0.0 3.0 -1 41
r 1.036685 0 1 sctp 1500 ------- 0 0.0 3.0 -1 42
+ 1.036685 1 2 sctp 1500 ------- 0 0.0 3.0 -1 42
r 1.037824 2 3 sctp 1500 ------- 0 0.0 3.0 -1 36
r 1.037885 0 1 sctp 1500 ------- 0 0.0 3.0 -1 43
+ 1.037885 1 2 sctp 1500 ------- 0 0.0 3.0 -1 43
r 1.038285 1 0 sctp 48 ------- 0 3.0 0.0 -1 39
+ 1.038285 0 1 sctp 1500 ------- 0 0.0 3.0 -1 45
- 1.038285 0 1 sctp 1500 ------- 0 0.0 3.0 -1 45
+ 1.038285 0 1 sctp 1500 ------- 0 0.0 3.0 -1 46
+ 1.038285 0 1 sctp 1500 ------- 0 0.0 3.0 -1 47
- 1.039485 0 1 sctp 1500 ------- 0 0.0 3.0 -1 46
- 1.040685 0 1 sctp 1500 ------- 0 0.0 3.0 -1 47
r 1.042246 2 1 sctp 48 ------- 0 3.0 0.0 -1 40
+ 1.042246 1 0 sctp 48 ------- 0 3.0 0.0 -1 40
- 1.042246 1 0 sctp 48 ------- 0 3.0 0.0 -1 40
r 1.045862 3 2 sctp 48 ------- 0 3.0 0.0 -1 44
+ 1.045862 2 1 sctp 48 ------- 0 3.0 0.0 -1 44
- 1.045862 2 1 sctp 48 ------- 0 3.0 0.0 -1 44
- 1.047485 1 2 sctp 1500 ------- 0 0.0 3.0 -1 42
r 1.049824 2 3 sctp 1500 ------- 0 0.0 3.0 -1 37
+ 1.049824 3 2 sctp 48 ------- 0 3.0 0.0 -1 48
- 1.049824 3 2 sctp 48 ------- 0 3.0 0.0 -1 48
r 1.059485 0 1 sctp 1500 ------- 0 0.0 3.0 -1 45
+ 1.059485 1 2 sctp 1500 ------- 0 0.0 3.0 -1 45
- 1.059485 1 2 sctp 1500 ------- 0 0.0 3.0 -1 43
r 1.060685 0 1 sctp 1500 ------- 0 0.0 3.0 -1 46
+ 1.060685 1 2 sctp 1500 ------- 0 0.0 3.0 -1 46
r 1.061885 0 1 sctp 1500 ------- 0 0.0 3.0 -1 47
+ 1.061885 1 2 sctp 1500 ------- 0 0.0 3.0 -1 47
r 1.062285 1 0 sctp 48 ------- 0 3.0 0.0 -1 40
+ 1.062285 0 1 sctp 1500 ------- 0 0.0 3.0 -1 49
- 1.062285 0 1 sctp 1500 ------- 0 0.0 3.0 -1 49
+ 1.062285 0 1 sctp 1500 ------- 0 0.0 3.0 -1 50
+ 1.062285 0 1 sctp 1500 ------- 0 0.0 3.0 -1 51
- 1.063485 0 1 sctp 1500 ------- 0 0.0 3.0 -1 50
- 1.064685 0 1 sctp 1500 ------- 0 0.0 3.0 -1 51
r 1.066246 2 1 sctp 48 ------- 0 3.0 0.0 -1 44
+ 1.066246 1 0 sctp 48 ------- 0 3.0 0.0 -1 44
- 1.066246 1 0 sctp 48 ------- 0 3.0 0.0 -1 44
r 1.067485 1 2 sctp 1500 ------- 0 0.0 3.0 -1 41
+ 1.067485 2 3 sctp 1500 ------- 0 0.0 3.0 -1 41
- 1.067485 2 3 sctp 1500 ------- 0 0.0 3.0 -1 41
r 1.069862 3 2 sctp 48 ------- 0 3.0 0.0 -1 48
+ 1.069862 2 1 sctp 48 ------- 0 3.0 0.0 -1 48
- 1.069862 2 1 sctp 48 ------- 0 3.0 0.0 -1 48
- 1.071485 1 2 sctp 1500 ------- 0 0.0 3.0 -1 45
r 1.079485 1 2 sctp 1500 ------- 0 0.0 3.0 -1 42
+ 1.079485 2 3 sctp 1500 ------- 0 0.0 3.0 -1 42
- 1.079485 2 3 sctp 1500 ------- 0 0.0 3.0 -1 42
r 1.083485 0 1 sctp 1500 ------- 0 0.0 3.0 -1 49
+ 1.083485 1 2 sctp 1500 ------- 0 0.0 3.0 -1 49
- 1.083485 1 2 sctp 1500 ------- 0 0.0 3.0 -1 46
r 1.084685 0 1 sctp 1500 ------- 0 0.0 3.0 -1 50
+ 1.084685 1 2 sctp 1500 ------- 0 0.0 3.0 -1 50
r 1.085885 0 1 sctp 1500 ------- 0 0.0 3.0 -1 51
+ 1.085885 1 2 sctp 1500 ------- 0 0.0 3.0 -1 51
r 1.086285 1 0 sctp 48 ------- 0 3.0 0.0 -1 44
+ 1.086285 0 1 sctp 1500 ------- 0 0.0 3.0 -1 52
- 1.086285 0 1 sctp 1500 ------- 0 0.0 3.0 -1 52
+ 1.086285 0 1 sctp 1500 ------- 0 0.0 3.0 -1 53
+ 1.086285 0 1 sctp 1500 ------- 0 0.0 3.0 -1 54
- 1.087485 0 1 sctp 1500 ------- 0 0.0 3.0 -1 53
r 1.088685 2 3 sctp 1500 ------- 0 0.0 3.0 -1 41
- 1.088685 0 1 sctp 1500 ------- 0 0.0 3.0 -1 54
r 1.090246 2 1 sctp 48 ------- 0 3.0 0.0 -1 48
+ 1.090246 1 0 sctp 48 ------- 0 3.0 0.0 -1 48
- 1.090246 1 0 sctp 48 ------- 0 3.0 0.0 -1 48
r 1.091485 1 2 sctp 1500 ------- 0 0.0 3.0 -1 43
+ 1.091485 2 3 sctp 1500 ------- 0 0.0 3.0 -1 43
- 1.091485 2 3 sctp 1500 ------- 0 0.0 3.0 -1 43
- 1.095485 1 2 sctp 1500 ------- 0 0.0 3.0 -1 47
r 1.100685 2 3 sctp 1500 ------- 0 0.0 3.0 -1 42
+ 1.100685 3 2 sctp 48 ------- 0 3.0 0.0 -1 55
- 1.100685 3 2 sctp 48 ------- 0 3.0 0.0 -1 55
r 1.103485 1 2 sctp 1500 ------- 0 0.0 3.0 -1 45
+ 1.103485 2 3 sctp 1500 ------- 0 0.0 3.0 -1 45
- 1.103485 2 3 sctp 1500 ------- 0 0.0 3.0 -1 45
r 1.107485 0 1 sctp 1500 ------- 0 0.0 3.0 -1 52
+ 1.107485 1 2 sctp 1500 ------- 0 0.0 3.0 -1 52
- 1.107485 1 2 sctp 1500 ------- 0 0.0 3.0 -1 49
r 1.108685 0 1 sctp 1500 ------- 0 0.0 3.0 -1 53
+ 1.108685 1 2 sctp 1500 ------- 0 0.0 3.0 -1 53
r 1.109885 0 1 sctp 1500 ------- 0 0.0 3.0 -1 54
+ 1.109885 1 2 sctp 1500 ------- 0 0.0 3.0 -1 54
r 1.110285 1 0 sctp 48 ------- 0 3.0 0.0 -1 48
+ 1.110285 0 1 sctp 1500 ------- 0 0.0 3.0 -1 56
- 1.110285 0 1 sctp 1500 ------- 0 0.0 3.0 -1 56
+ 1.110285 0 1 sctp 1500 ------- 0 0.0 3.0 -1 57
+ 1.110285 0 1 sctp 1500 ------- 0 0.0 3.0 -1 58
- 1.111485 0 1 sctp 1500 ------- 0 0.0 3.0 -1 57
r 1.112685 2 3 sctp 1500 ------- 0 0.0 3.0 -1 43
- 1.112685 0 1 sctp 1500 ------- 0 0.0 3.0 -1 58
r 1.115485 1 2 sctp 1500 ------- 0 0.0 3.0 -1 46
+ 1.115485 2 3 sctp 1500 ------- 0 0.0 3.0 -1 46
- 1.115485 2 3 sctp 1500 ------- 0 0.0 3.0 -1 46
- 1.119485 1 2 sctp 1500 ------- 0 0.0 3.0 -1 50
r 1.120723 3 2 sctp 48 ------- 0 3.0 0.0 -1 55
+ 1.120723 2 1 sctp 48 ------- 0 3.0 0.0 -1 55
- 1.120723 2 1 sctp 48 ------- 0 3.0 0.0 -1 55
r 1.124685 2 3 sctp 1500 ------- 0 0.0 3.0 -1 45
+ 1.124685 3 2 sctp 48 ------- 0 3.0 0.0 -1 59
- 1.124685 3 2 sctp 48 ------- 0 3.0 0.0 -1 59
r 1.127485 1 2 sctp 1500 ------- 0 0.0 3.0 -1 47
+ 1.127485 2 3 sctp 1500 ------- 0 0.0 3.0 -1 47
- 1.127485 2 3 sctp 1500 ------- 0 0.0 3.0 -1 47
r 1.131485 0 1 sctp 1500 ------- 0 0.0 3.0 -1 56
+ 1.131485 1 2 sctp 1500 ------- 0 0.0 3.0 -1 56
- 1.131485 1 2 sctp 1500 ------- 0 0.0 3.0 -1 51
r 1.132685 0 1 sctp 1500 ------- 0 0.0 3.0 -1 57
+ 1.132685 1 2 sctp 1500 ------- 0 0.0 3.0 -1 57
r 1.133885 0 1 sctp 1500 ------- 0 0.0 3.0 -1 58
+ 1.133885 1 2 sctp 1500 ------- 0 0.0 3.0 -1 58
r 1.136685 2 3 sctp 1500 ------- 0 0.0 3.0 -1 46
r 1.139485 1 2 sctp 1500 ------- 0 0.0 3.0 -1 49
+ 1.139485 2 3 sctp 1500 ------- 0 0.0 3.0 -1 49
- 1.139485 2 3 sctp 1500 ------- 0 0.0 3.0 -1 49
r 1.141107 2 1 sctp 48 ------- 0 3.0 0.0 -1 55
+ 1.141107 1 0 sctp 48 ------- 0 3.0 0.0 -1 55
- 1.141107 1 0 sctp 48 ------- 0 3.0 0.0 -1 55
- 1.143485 1 2 sctp 1500 ------- 0 0.0 3.0 -1 52
r 1.144723 3 2 sctp 48 ------- 0 3.0 0.0 -1 59
+ 1.144723 2 1 sctp 48 ------- 0 3.0 0.0 -1 59
- 1.144723 2 1 sctp 48 ------- 0 3.0 0.0 -1 59
r 1.148685 2 3 sctp 1500 ------- 0 0.0 3.0 -1 47
+ 1.148685 3 2 sctp 48 ------- 0 3.0 0.0 -1 60
- 1.148685 3 2 sctp 48 ------- 0 3.0 0.0 -1 60
r 1.151485 1 2 sctp 1500 ------- 0 0.0 3.0 -1 50
+ 1.151485 2 3 sctp 1500 ------- 0 0.0 3.0 -1 50
- 1.151485 2 3 sctp 1500 ------- 0 0.0 3.0 -1 50
- 1.155485 1 2 sctp 1500 ------- 0 0.0 3.0 -1 53
r 1.160685 2 3 sctp 1500 ------- 0 0.0 3.0 -1 49
r 1.161146 1 0 sctp 48 ------- 0 3.0 0.0 -1 55
+ 1.161146 0 1 sctp 1500 ------- 0 0.0 3.0 -1 61
- 1.161146 0 1 sctp 1500 ------- 0 0.0 3.0 -1 61
+ 1.161146 0 1 sctp 1500 ------- 0 0.0 3.0 -1 62
+ 1.161146 0 1 sctp 1500 ------- 0 0.0 3.0 -1 63
- 1.162346 0 1 sctp 1500 ------- 0 0.0 3.0 -1 62
r 1.163485 1 2 sctp 1500 ------- 0 0.0 3.0 -1 51
+ 1.163485 2 3 sctp 1500 ------- 0 0.0 3.0 -1 51
- 1.163485 2 3 sctp 1500 ------- 0 0.0 3.0 -1 51
- 1.163546 0 1 sctp 1500 ------- 0 0.0 3.0 -1 63
r 1.165107 2 1 sctp 48 ------- 0 3.0 0.0 -1 59
+ 1.165107 1 0 sctp 48 ------- 0 3.0 0.0 -1 59
- 1.165107 1 0 sctp 48 ------- 0 3.0 0.0 -1 59
- 1.167485 1 2 sctp 1500 ------- 0 0.0 3.0 -1 54
r 1.168723 3 2 sctp 48 ------- 0 3.0 0.0 -1 60
+ 1.168723 2 1 sctp 48 ------- 0 3.0 0.0 -1 60
- 1.168723 2 1 sctp 48 ------- 0 3.0 0.0 -1 60
r 1.172685 2 3 sctp 1500 ------- 0 0.0 3.0 -1 50
+ 1.172685 3 2 sctp 48 ------- 0 3.0 0.0 -1 64
- 1.172685 3 2 sctp 48 ------- 0 3.0 0.0 -1 64
r 1.175485 1 2 sctp 1500 ------- 0 0.0 3.0 -1 52
+ 1.175485 2 3 sctp 1500 ------- 0 0.0 3.0 -1 52
- 1.175485 2 3 sctp 1500 ------- 0 0.0 3.0 -1 52
- 1.179485 1 2 sctp 1500 ------- 0 0.0 3.0 -1 56
r 1.182346 0 1 sctp 1500 ------- 0 0.0 3.0 -1 61
+ 1.182346 1 2 sctp 1500 ------- 0 0.0 3.0 -1 61
r 1.183546 0 1 sctp 1500 ------- 0 0.0 3.0 -1 62
+ 1.183546 1 2 sctp 1500 ------- 0 0.0 3.0 -1 62
r 1.184685 2 3 sctp 1500 ------- 0 0.0 3.0 -1 51
r 1.184746 0 1 sctp 1500 ------- 0 0.0 3.0 -1 63
+ 1.184746 1 2 sctp 1500 ------- 0 0.0 3.0 -1 63
r 1.185146 1 0 sctp 48 ------- 0 3.0 0.0 -1 59
+ 1.185146 0 1 sctp 1500 ------- 0 0.0 3.0 -1 65
- 1.185146 0 1 sctp 1500 ------- 0 0.0 3.0 -1 65
+ 1.185146 0 1 sctp 1500 ------- 0 0.0 3.0 -1 66
+ 1.185146 0 1 sctp 1500 ------- 0 0.0 3.0 -1 67
- 1.186346 0 1 sctp 1500 ------- 0 0.0 3.0 -1 66
r 1.187485 1 2 sctp 1500 ------- 0 0.0 3.0 -1 53
+ 1.187485 2 3 sctp 1500 ------- 0 0.0 3.0 -1 53
- 1.187485 2 3 sctp 1500 ------- 0 0.0 3.0 -1 53
- 1.187546 0 1 sctp 1500 ------- 0 0.0 3.0 -1 67
r 1.189107 2 1 sctp 48 ------- 0 3.0 0.0 -1 60
+ 1.189107 1 0 sctp 48 ------- 0 3.0 0.0 -1 60
- 1.189107 1 0 sctp 48 ------- 0 3.0 0.0 -1 60
- 1.191485 1 2 sctp 1500 ------- 0 0.0 3.0 -1 57
r 1.192723 3 2 sctp 48 ------- 0 3.0 0.0 -1 64
+ 1.192723 2 1 sctp 48 ------- 0 3.0 0.0 -1 64
- 1.192723 2 1 sctp 48 ------- 0 3.0 0.0 -1 64
r 1.196685 2 3 sctp 1500 ------- 0 0.0 3.0 -1 52
+ 1.196685 3 2 sctp 48 ------- 0 3.0 0.0 -1 68
- 1.196685 3 2 sctp 48 ------- 0 3.0 0.0 -1 68
r 1.199485 1 2 sctp 1500 ------- 0 0.0 3.0 -1 54
+ 1.199485 2 3 sctp 1500 ------- 0 0.0 3.0 -1 54
- 1.199485 2 3 sctp 1500 ------- 0 0.0 3.0 -1 54
- 1.203485 1 2 sctp 1500 ------- 0 0.0 3.0 -1 58
r 1.206346 0 1 sctp 1500 ------- 0 0.0 3.0 -1 65
+ 1.206346 1 2 sctp 1500 ------- 0 0.0 3.0 -1 65
r 1.207546 0 1 sctp 1500 ------- 0 0.0 3.0 -1 66
+ 1.207546 1 2 sctp 1500 ------- 0 0.0 3.0 -1 66
r 1.208685 2 3 sctp 1500 ------- 0 0.0 3.0 -1 53
r 1.208746 0 1 sctp 1500 ------- 0 0.0 3.0 -1 67
+ 1.208746 1 2 sctp 1500 ------- 0 0.0 3.0 -1 67
r 1.209146 1 0 sctp 48 ------- 0 3.0 0.0 -1 60
+ 1.209146 0 1 sctp 1500 ------- 0 0.0 3.0 -1 69
- 1.209146 0 1 sctp 1500 ------- 0 0.0 3.0 -1 69
+ 1.209146 0 1 sctp 1500 ------- 0 0.0 3.0 -1 70
+ 1.209146 0 1 sctp 1500 ------- 0 0.0 3.0 -1 71
- 1.210346 0 1 sctp 1500 ------- 0 0.0 3.0 -1 70
r 1.211485 1 2 sctp 1500 ------- 0 0.0 3.0 -1 56
+ 1.211485 2 3 sctp 1500 ------- 0 0.0 3.0 -1 56
- 1.211485 2 3 sctp 1500 ------- 0 0.0 3.0 -1 56
- 1.211546 0 1 sctp 1500 ------- 0 0.0 3.0 -1 71
r 1.213107 2 1 sctp 48 ------- 0 3.0 0.0 -1 64
+ 1.213107 1 0 sctp 48 ------- 0 3.0 0.0 -1 64
- 1.213107 1 0 sctp 48 ------- 0 3.0 0.0 -1 64
- 1.215485 1 2 sctp 1500 ------- 0 0.0 3.0 -1 61
r 1.216723 3 2 sctp 48 ------- 0 3.0 0.0 -1 68
+ 1.216723 2 1 sctp 48 ------- 0 3.0 0.0 -1 68
- 1.216723 2 1 sctp 48 ------- 0 3.0 0.0 -1 68
r 1.220685 2 3 sctp 1500 ------- 0 0.0 3.0 -1 54
+ 1.220685 3 2 sctp 48 ------- 0 3.0 0.0 -1 72
- 1.220685 3 2 sctp 48 ------- 0 3.0 0.0 -1 72
r 1.223485 1 2 sctp 1500 ------- 0 0.0 3.0 -1 57
+ 1.223485 2 3 sctp 1500 ------- 0 0.0 3.0 -1 57
- 1.223485 2 3 sctp 1500 ------- 0 0.0 3.0 -1 57
- 1.227485 1 2 sctp 1500 ------- 0 0.0 3.0 -1 62
r 1.230346 0 1 sctp 1500 ------- 0 0.0 3.0 -1 69
+ 1.230346 1 2 sctp 1500 ------- 0 0.0 3.0 -1 69
r 1.231546 0 1 sctp 1500 ------- 0 0.0 3.0 -1 70
+ 1.231546 1 2 sctp 1500 ------- 0 0.0 3.0 -1 70
r 1.232685 2 3 sctp 1500 ------- 0 0.0 3.0 -1 56
r 1.232746 0 1 sctp 1500 ------- 0 0.0 3.0 -1 71
+ 1.232746 1 2 sctp 1500 ------- 0 0.0 3.0 -1 71
r 1.233146 1 0 sctp 48 ------- 0 3.0 0.0 -1 64
+ 1.233146 0 1 sctp 1500 ------- 0 0.0 3.0 -1 73
- 1.233146 0 1 sctp 1500 ------- 0 0.0 3.0 -1 73
+ 1.233146 0 1 sctp 1500 ------- 0 0.0 3.0 -1 74
+ 1.233146 0 1 sctp 1500 ------- 0 0.0 3.0 -1 75
- 1.234346 0 1 sctp 1500 ------- 0 0.0 3.0 -1 74
r 1.235485 1 2 sctp 1500 ------- 0 0.0 3.0 -1 58
+ 1.235485 2 3 sctp 1500 ------- 0 0.0 3.0 -1 58
- 1.235485 2 3 sctp 1500 ------- 0 0.0 3.0 -1 58
- 1.235546 0 1 sctp 1500 ------- 0 0.0 3.0 -1 75
r 1.237107 2 1 sctp 48 ------- 0 3.0 0.0 -1 68
+ 1.237107 1 0 sctp 48 ------- 0 3.0 0.0 -1 68
- 1.237107 1 0 sctp 48 ------- 0 3.0 0.0 -1 68
- 1.239485 1 2 sctp 1500 ------- 0 0.0 3.0 -1 63
r 1.240723 3 2 sctp 48 ------- 0 3.0 0.0 -1 72
+ 1.240723 2 1 sctp 48 ------- 0 3.0 0.0 -1 72
- 1.240723 2 1 sctp 48 ------- 0 3.0 0.0 -1 72
r 1.244685 2 3 sctp 1500 ------- 0 0.0 3.0 -1 57
+ 1.244685 3 2 sctp 48 ------- 0 3.0 0.0 -1 76
- 1.244685 3 2 sctp 48 ------- 0 3.0 0.0 -1 76
r 1.247485 1 2 sctp 1500 ------- 0 0.0 3.0 -1 61
+ 1.247485 2 3 sctp 1500 ------- 0 0.0 3.0 -1 61
- 1.247485 2 3 sctp 1500 ------- 0 0.0 3.0 -1 61
- 1.251485 1 2 sctp 1500 ------- 0 0.0 3.0 -1 65
r 1.254346 0 1 sctp 1500 ------- 0 0.0 3.0 -1 73
+ 1.254346 1 2 sctp 1500 ------- 0 0.0 3.0 -1 73
r 1.255546 0 1 sctp 1500 ------- 0 0.0 3.0 -1 74
+ 1.255546 1 2 sctp 1500 ------- 0 0.0 3.0 -1 74
r 1.256685 2 3 sctp 1500 ------- 0 0.0 3.0 -1 58
r 1.256746 0 1 sctp 1500 ------- 0 0.0 3.0 -1 75
+ 1.256746 1 2 sctp 1500 ------- 0 0.0 3.0 -1 75
r 1.257146 1 0 sctp 48 ------- 0 3.0 0.0 -1 68
+ 1.257146 0 1 sctp 1500 ------- 0 0.0 3.0 -1 77
- 1.257146 0 1 sctp 1500 ------- 0 0.0 3.0 -1 77
+ 1.257146 0 1 sctp 1500 ------- 0 0.0 3.0 -1 78
+ 1.257146 0 1 sctp 1500 ------- 0 0.0 3.0 -1 79
- 1.258346 0 1 sctp 1500 ------- 0 0.0 3.0 -1 78
r 1.259485 1 2 sctp 1500 ------- 0 0.0 3.0 -1 62
+ 1.259485 2 3 sctp 1500 ------- 0 0.0 3.0 -1 62
- 1.259485 2 3 sctp 1500 ------- 0 0.0 3.0 -1 62
- 1.259546 0 1 sctp 1500 ------- 0 0.0 3.0 -1 79
r 1.261107 2 1 sctp 48 ------- 0 3.0 0.0 -1 72
+ 1.261107 1 0 sctp 48 ------- 0 3.0 0.0 -1 72
- 1.261107 1 0 sctp 48 ------- 0 3.0 0.0 -1 72