+ 0.1 0 1 sctp 56 ------- 1 0.0 2.0 -1 2
- 0.1 0 1 sctp 56 ------- 1 0.0 2.0 -1 2
r 0.18112 0 1 sctp 56 ------- 1 0.0 2.0 -1 2
+ 0.18112 1 2 sctp 56 ------- 1 0.0 2.0 -1 2
- 0.18112 1 2 sctp 56 ------- 1 0.0 2.0 -1 2
r 0.27232 1 2 sctp 56 ------- 1 0.0 2.0 -1 2
+ 0.27232 2 1 sctp 56 ------- 0 2.0 0.0 -1 3
- 0.27232 2 1 sctp 56 ------- 0 2.0 0.0 -1 3
r 0.36352 2 1 sctp 56 ------- 0 2.0 0.0 -1 3
+ 0.36352 1 0 sctp 56 ------- 0 2.0 0.0 -1 3
- 0.36352 1 0 sctp 56 ------- 0 2.0 0.0 -1 3
r 0.44464 1 0 sctp 56 ------- 0 2.0 0.0 -1 3
+ 0.44464 0 1 sctp 36 ------- 1 0.0 2.0 -1 4
- 0.44464 0 1 sctp 36 ------- 1 0.0 2.0 -1 4
r 0.52536 0 1 sctp 36 ------- 1 0.0 2.0 -1 4
+ 0.52536 1 2 sctp 36 ------- 1 0.0 2.0 -1 4
- 0.52536 1 2 sctp 36 ------- 1 0.0 2.0 -1 4
r 0.61256 1 2 sctp 36 ------- 1 0.0 2.0 -1 4
+ 0.61256 2 1 sctp 36 ------- 0 2.0 0.0 -1 5
- 0.61256 2 1 sctp 36 ------- 0 2.0 0.0 -1 5
r 0.69976 2 1 sctp 36 ------- 0 2.0 0.0 -1 5
+ 0.69976 1 0 sctp 36 ------- 0 2.0 0.0 -1 5
- 0.69976 1 0 sctp 36 ------- 0 2.0 0.0 -1 5
r 0.78048 1 0 sctp 36 ------- 0 2.0 0.0 -1 5
+ 0.78048 0 1 sctp 56 ------- 1 0.0 2.0 -1 6
- 0.78048 0 1 sctp 56 ------- 1 0.0 2.0 -1 6
r 0.8616 0 1 sctp 56 ------- 1 0.0 2.0 -1 6
+ 0.8616 1 2 sctp 56 ------- 1 0.0 2.0 -1 6
- 0.8616 1 2 sctp 56 ------- 1 0.0 2.0 -1 6
r 0.9528 1 2 sctp 56 ------- 1 0.0 2.0 -1 6
+ 0.9528 2 1 sctp 56 ------- 0 2.0 0.0 -1 7
- 0.9528 2 1 sctp 56 ------- 0 2.0 0.0 -1 7
r 1.044 2 1 sctp 56 ------- 0 2.0 0.0 -1 7
+ 1.044 1 0 sctp 56 ------- 0 2.0 0.0 -1 7
- 1.044 1 0 sctp 56 ------- 0 2.0 0.0 -1 7
r 1.12512 1 0 sctp 56 ------- 0 2.0 0.0 -1 7
+ 1.12512 0 1 sctp 1500 ------- 1 0.0 2.0 -1 8
- 1.12512 0 1 sctp 1500 ------- 1 0.0 2.0 -1 8
+ 1.12512 0 1 sctp 1500 ------- 1 0.0 2.0 -1 9
+ 1.12512 0 1 sctp 1500 ------- 1 0.0 2.0 -1 10
- 1.15512 0 1 sctp 1500 ------- 1 0.0 2.0 -1 9
- 1.18512 0 1 sctp 1500 ------- 1 0.0 2.0 -1 10
r 1.23512 0 1 sctp 1500 ------- 1 0.0 2.0 -1 8
+ 1.23512 1 2 sctp 1500 ------- 1 0.0 2.0 -1 8
- 1.23512 1 2 sctp 1500 ------- 1 0.0 2.0 -1 8
r 1.26512 0 1 sctp 1500 ------- 1 0.0 2.0 -1 9
+ 1.26512 1 2 sctp 1500 ------- 1 0.0 2.0 -1 9
r 1.29512 0 1 sctp 1500 ------- 1 0.0 2.0 -1 10
+ 1.29512 1 2 sctp 1500 ------- 1 0.0 2.0 -1 10
- 1.53512 1 2 sctp 1500 ------- 1 0.0 2.0 -1 9
r 1.61512 1 2 sctp 1500 ------- 1 0.0 2.0 -1 8
+ 1.61512 2 1 sctp 48 ------- 0 2.0 0.0 -1 11
- 1.61512 2 1 sctp 48 ------- 0 2.0 0.0 -1 11
r 1.70472 2 1 sctp 48 ------- 0 2.0 0.0 -1 11
+ 1.70472 1 0 sctp 48 ------- 0 2.0 0.0 -1 11
- 1.70472 1 0 sctp 48 ------- 0 2.0 0.0 -1 11
r 1.78568 1 0 sctp 48 ------- 0 2.0 0.0 -1 11
+ 1.78568 0 1 sctp 1500 ------- 1 0.0 2.0 -1 12
- 1.78568 0 1 sctp 1500 ------- 1 0.0 2.0 -1 12
+ 1.78568 0 1 sctp 1500 ------- 1 0.0 2.0 -1 13
- 1.81568 0 1 sctp 1500 ------- 1 0.0 2.0 -1 13
- 1.83512 1 2 sctp 1500 ------- 1 0.0 2.0 -1 10
r 1.89568 0 1 sctp 1500 ------- 1 0.0 2.0 -1 12
+ 1.89568 1 2 sctp 1500 ------- 1 0.0 2.0 -1 12
r 1.91512 1 2 sctp 1500 ------- 1 0.0 2.0 -1 9
r 1.92568 0 1 sctp 1500 ------- 1 0.0 2.0 -1 13
+ 1.92568 1 2 sctp 1500 ------- 1 0.0 2.0 -1 13
+ 2.11512 2 1 sctp 48 ------- 0 2.0 0.0 -1 14
- 2.11512 2 1 sctp 48 ------- 0 2.0 0.0 -1 14
- 2.13512 1 2 sctp 1500 ------- 1 0.0 2.0 -1 12
r 2.20472 2 1 sctp 48 ------- 0 2.0 0.0 -1 14
+ 2.20472 1 0 sctp 48 ------- 0 2.0 0.0 -1 14
- 2.20472 1 0 sctp 48 ------- 0 2.0 0.0 -1 14
r 2.21512 1 2 sctp 1500 ------- 1 0.0 2.0 -1 10
r 2.28568 1 0 sctp 48 ------- 0 2.0 0.0 -1 14
+ 2.28568 0 1 sctp 1500 ------- 1 0.0 2.0 -1 15
- 2.28568 0 1 sctp 1500 ------- 1 0.0 2.0 -1 15
+ 2.28568 0 1 sctp 1500 ------- 1 0.0 2.0 -1 16
- 2.31568 0 1 sctp 1500 ------- 1 0.0 2.0 -1 16
r 2.39568 0 1 sctp 1500 ------- 1 0.0 2.0 -1 15
+ 2.39568 1 2 sctp 1500 ------- 1 0.0 2.0 -1 15
+ 2.41512 2 1 sctp 48 ------- 0 2.0 0.0 -1 17
- 2.41512 2 1 sctp 48 ------- 0 2.0 0.0 -1 17
r 2.42568 0 1 sctp 1500 ------- 1 0.0 2.0 -1 16
+ 2.42568 1 2 sctp 1500 ------- 1 0.0 2.0 -1 16
- 2.43512 1 2 sctp 1500 ------- 1 0.0 2.0 -1 13
r 2.50472 2 1 sctp 48 ------- 0 2.0 0.0 -1 17
+ 2.50472 1 0 sctp 48 ------- 0 2.0 0.0 -1 17
- 2.50472 1 0 sctp 48 ------- 0 2.0 0.0 -1 17
r 2.51512 1 2 sctp 1500 ------- 1 0.0 2.0 -1 12
r 2.58568 1 0 sctp 48 ------- 0 2.0 0.0 -1 17
+ 2.58568 0 1 sctp 1500 ------- 1 0.0 2.0 -1 18
- 2.58568 0 1 sctp 1500 ------- 1 0.0 2.0 -1 18
+ 2.58568 0 1 sctp 1500 ------- 1 0.0 2.0 -1 19
- 2.61568 0 1 sctp 1500 ------- 1 0.0 2.0 -1 19
r 2.69568 0 1 sctp 1500 ------- 1 0.0 2.0 -1 18
+ 2.69568 1 2 sctp 1500 ------- 1 0.0 2.0 -1 18
+ 2.71512 2 1 sctp 48 ------- 0 2.0 0.0 -1 20
- 2.71512 2 1 sctp 48 ------- 0 2.0 0.0 -1 20
r 2.72568 0 1 sctp 1500 ------- 1 0.0 2.0 -1 19
+ 2.72568 1 2 sctp 1500 ------- 1 0.0 2.0 -1 19
- 2.73512 1 2 sctp 1500 ------- 1 0.0 2.0 -1 15
r 2.80472 2 1 sctp 48 ------- 0 2.0 0.0 -1 20
+ 2.80472 1 0 sctp 48 ------- 0 2.0 0.0 -1 20
- 2.80472 1 0 sctp 48 ------- 0 2.0 0.0 -1 20
r 2.81512 1 2 sctp 1500 ------- 1 0.0 2.0 -1 13
r 2.88568 1 0 sctp 48 ------- 0 2.0 0.0 -1 20
+ 2.88568 0 1 sctp 1500 ------- 1 0.0 2.0 -1 21
- 2.88568 0 1 sctp 1500 ------- 1 0.0 2.0 -1 21
+ 2.88568 0 1 sctp 1500 ------- 1 0.0 2.0 -1 22
- 2.91568 0 1 sctp 1500 ------- 1 0.0 2.0 -1 22
r 2.99568 0 1 sctp 1500 ------- 1 0.0 2.0 -1 21
+ 2.99568 1 2 sctp 1500 ------- 1 0.0 2.0 -1 21
+ 3.01512 2 1 sctp 48 ------- 0 2.0 0.0 -1 23
- 3.01512 2 1 sctp 48 ------- 0 2.0 0.0 -1 23
r 3.02568 0 1 sctp 1500 ------- 1 0.0 2.0 -1 22
+ 3.02568 1 2 sctp 1500 ------- 1 0.0 2.0 -1 22
- 3.03512 1 2 sctp 1500 ------- 1 0.0 2.0 -1 16
r 3.10472 2 1 sctp 48 ------- 0 2.0 0.0 -1 23
+ 3.10472 1 0 sctp 48 ------- 0 2.0 0.0 -1 23
- 3.10472 1 0 sctp 48 ------- 0 2.0 0.0 -1 23
r 3.11512 1 2 sctp 1500 ------- 1 0.0 2.0 -1 15
r 3.18568 1 0 sctp 48 ------- 0 2.0 0.0 -1 23
+ 3.18568 0 1 sctp 1500 ------- 1 0.0 2.0 -1 24
- 3.18568 0 1 sctp 1500 ------- 1 0.0 2.0 -1 24
+ 3.18568 0 1 sctp 1500 ------- 1 0.0 2.0 -1 25
- 3.21568 0 1 sctp 1500 ------- 1 0.0 2.0 -1 25
r 3.29568 0 1 sctp 1500 ------- 1 0.0 2.0 -1 24
+ 3.29568 1 2 sctp 1500 ------- 1 0.0 2.0 -1 24
+ 3.31512 2 1 sctp 48 ------- 0 2.0 0.0 -1 26
- 3.31512 2 1 sctp 48 ------- 0 2.0 0.0 -1 26
r 3.32568 0 1 sctp 1500 ------- 1 0.0 2.0 -1 25
+ 3.32568 1 2 sctp 1500 ------- 1 0.0 2.0 -1 25
- 3.33512 1 2 sctp 1500 ------- 1 0.0 2.0 -1 18
r 3.40472 2 1 sctp 48 ------- 0 2.0 0.0 -1 26
+ 3.40472 1 0 sctp 48 ------- 0 2.0 0.0 -1 26
- 3.40472 1 0 sctp 48 ------- 0 2.0 0.0 -1 26
r 3.41512 1 2 sctp 1500 ------- 1 0.0 2.0 -1 16
r 3.48568 1 0 sctp 48 ------- 0 2.0 0.0 -1 26
+ 3.48568 0 1 sctp 1500 ------- 1 0.0 2.0 -1 27
- 3.48568 0 1 sctp 1500 ------- 1 0.0 2.0 -1 27
+ 3.48568 0 1 sctp 1500 ------- 1 0.0 2.0 -1 28
- 3.51568 0 1 sctp 1500 ------- 1 0.0 2.0 -1 28
r 3.59568 0 1 sctp 1500 ------- 1 0.0 2.0 -1 27
+ 3.59568 1 2 sctp 1500 ------- 1 0.0 2.0 -1 27
+ 3.61512 2 1 sctp 48 ------- 0 2.0 0.0 -1 29
- 3.61512 2 1 sctp 48 ------- 0 2.0 0.0 -1 29
r 3.62568 0 1 sctp 1500 ------- 1 0.0 2.0 -1 28
+ 3.62568 1 2 sctp 1500 ------- 1 0.0 2.0 -1 28
- 3.63512 1 2 sctp 1500 ------- 1 0.0 2.0 -1 19
r 3.70472 2 1 sctp 48 ------- 0 2.0 0.0 -1 29
+ 3.70472 1 0 sctp 48 ------- 0 2.0 0.0 -1 29
- 3.70472 1 0 sctp 48 ------- 0 2.0 0.0 -1 29
r 3.71512 1 2 sctp 1500 ------- 1 0.0 2.0 -1 18
r 3.78568 1 0 sctp 48 ------- 0 2.0 0.0 -1 29
+ 3.78568 0 1 sctp 1500 ------- 1 0.0 2.0 -1 30
- 3.78568 0 1 sctp 1500 ------- 1 0.0 2.0 -1 30
+ 3.78568 0 1 sctp 1500 ------- 1 0.0 2.0 -1 31
- 3.81568 0 1 sctp 1500 ------- 1 0.0 2.0 -1 31
r 3.89568 0 1 sctp 1500 ------- 1 0.0 2.0 -1 30
+ 3.89568 1 2 sctp 1500 ------- 1 0.0 2.0 -1 30
+ 3.91512 2 1 sctp 48 ------- 0 2.0 0.0 -1 32
- 3.91512 2 1 sctp 48 ------- 0 2.0 0.0 -1 32
r 3.92568 0 1 sctp 1500 ------- 1 0.0 2.0 -1 31
+ 3.92568 1 2 sctp 1500 ------- 1 0.0 2.0 -1 31
- 3.93512 1 2 sctp 1500 ------- 1 0.0 2.0 -1 21
r 4.00472 2 1 sctp 48 ------- 0 2.0 0.0 -1 32
+ 4.00472 1 0 sctp 48 ------- 0 2.0 0.0 -1 32
- 4.00472 1 0 sctp 48 ------- 0 2.0 0.0 -1 32
r 4.01512 1 2 sctp 1500 ------- 1 0.0 2.0 -1 19
r 4.08568 1 0 sctp 48 ------- 0 2.0 0.0 -1 32
+ 4.08568 0 1 sctp 1500 ------- 1 0.0 2.0 -1 33
- 4.08568 0 1 sctp 1500 ------- 1 0.0 2.0 -1 33
+ 4.08568 0 1 sctp 1500 ------- 1 0.0 2.0 -1 34
- 4.11568 0 1 sctp 1500 ------- 1 0.0 2.0 -1 34
r 4.19568 0 1 sctp 1500 ------- 1 0.0 2.0 -1 33
+ 4.19568 1 2 sctp 1500 ------- 1 0.0 2.0 -1 33
+ 4.21512 2 1 sctp 48 ------- 0 2.0 0.0 -1 35
- 4.21512 2 1 sctp 48 ------- 0 2.0 0.0 -1 35
r 4.22568 0 1 sctp 1500 ------- 1 0.0 2.0 -1 34
+ 4.22568 1 2 sctp 1500 ------- 1 0.0 2.0 -1 34
- 4.23512 1 2 sctp 1500 ------- 1 0.0 2.0 -1 22
r 4.30472 2 1 sctp 48 ------- 0 2.0 0.0 -1 35
+ 4.30472 1 0 sctp 48 ------- 0 2.0 0.0 -1 35
- 4.30472 1 0 sctp 48 ------- 0 2.0 0.0 -1 35
r 4.31512 1 2 sctp 1500 ------- 1 0.0 2.0 -1 21
r 4.38568 1 0 sctp 48 ------- 0 2.0 0.0 -1 35
+ 4.38568 0 1 sctp 1500 ------- 1 0.0 2.0 -1 36
- 4.38568 0 1 sctp 1500 ------- 1 0.0 2.0 -1 36
+ 4.38568 0 1 sctp 1500 ------- 1 0.0 2.0 -1 37
- 4.41568 0 1 sctp 1500 ------- 1 0.0 2.0 -1 37
r 4.49568 0 1 sctp 1500 ------- 1 0.0 2.0 -1 36
+ 4.49568 1 2 sctp 1500 ------- 1 0.0 2.0 -1 36
+ 4.51512 2 1 sctp 48 ------- 0 2.0 0.0 -1 38
- 4.51512 2 1 sctp 48 ------- 0 2.0 0.0 -1 38
r 4.52568 0 1 sctp 1500 ------- 1 0.0 2.0 -1 37
+ 4.52568 1 2 sctp 1500 ------- 1 0.0 2.0 -1 37
- 4.53512 1 2 sctp 1500 ------- 1 0.0 2.0 -1 24
r 4.60472 2 1 sctp 48 ------- 0 2.0 0.0 -1 38
+ 4.60472 1 0 sctp 48 ------- 0 2.0 0.0 -1 38
- 4.60472 1 0 sctp 48 ------- 0 2.0 0.0 -1 38
r 4.61512 1 2 sctp 1500 ------- 1 0.0 2.0 -1 22
r 4.68568 1 0 sctp 48 ------- 0 2.0 0.0 -1 38
+ 4.68568 0 1 sctp 1500 ------- 1 0.0 2.0 -1 39
- 4.68568 0 1 sctp 1500 ------- 1 0.0 2.0 -1 39
+ 4.68568 0 1 sctp 1500 ------- 1 0.0 2.0 -1 40
- 4.71568 0 1 sctp 1500 ------- 1 0.0 2.0 -1 40
r 4.79568 0 1 sctp 1500 ------- 1 0.0 2.0 -1 39
+ 4.79568 1 2 sctp 1500 ------- 1 0.0 2.0 -1 39
+ 4.81512 2 1 sctp 48 ------- 0 2.0 0.0 -1 41
- 4.81512 2 1 sctp 48 ------- 0 2.0 0.0 -1 41
r 4.82568 0 1 sctp 1500 ------- 1 0.0 2.0 -1 40
+ 4.82568 1 2 sctp 1500 ------- 1 0.0 2.0 -1 40
- 4.83512 1 2 sctp 1500 ------- 1 0.0 2.0 -1 25
r 4.90472 2 1 sctp 48 ------- 0 2.0 0.0 -1 41
+ 4.90472 1 0 sctp 48 ------- 0 2.0 0.0 -1 41
- 4.90472 1 0 sctp 48 ------- 0 2.0 0.0 -1 41
r 4.91512 1 2 sctp 1500 ------- 1 0.0 2.0 -1 24
r 4.98568 1 0 sctp 48 ------- 0 2.0 0.0 -1 41
+ 4.98568 0 1 sctp 1500 ------- 1 0.0 2.0 -1 42
- 4.98568 0 1 sctp 1500 ------- 1 0.0 2.0 -1 42
+ 4.98568 0 1 sctp 1500 ------- 1 0.0 2.0 -1 43
- 5.01568 0 1 sctp 1500 ------- 1 0.0 2.0 -1 43
r 5.09568 0 1 sctp 1500 ------- 1 0.0 2.0 -1 42
+ 5.09568 1 2 sctp 1500 ------- 1 0.0 2.0 -1 42
+ 5.11512 2 1 sctp 48 ------- 0 2.0 0.0 -1 44
- 5.11512 2 1 sctp 48 ------- 0 2.0 0.0 -1 44
r 5.12568 0 1 sctp 1500 ------- 1 0.0 2.0 -1 43
+ 5.12568 1 2 sctp 1500 ------- 1 0.0 2.0 -1 43
- 5.13512 1 2 sctp 1500 ------- 1 0.0 2.0 -1 27
r 5.20472 2 1 sctp 48 ------- 0 2.0 0.0 -1 44
+ 5.20472 1 0 sctp 48 ------- 0 2.0 0.0 -1 44
- 5.20472 1 0 sctp 48 ------- 0 2.0 0.0 -1 44
r 5.21512 1 2 sctp 1500 ------- 1 0.0 2.0 -1 25
r 5.28568 1 0 sctp 48 ------- 0 2.0 0.0 -1 44
+ 5.28568 0 1 sctp 1500 ------- 1 0.0 2.0 -1 45
- 5.28568 0 1 sctp 1500 ------- 1 0.0 2.0 -1 45
+ 5.28568 0 1 sctp 1500 ------- 1 0.0 2.0 -1 46
- 5.31568 0 1 sctp 1500 ------- 1 0.0 2.0 -1 46
r 5.39568 0 1 sctp 1500 ------- 1 0.0 2.0 -1 45
+ 5.39568 1 2 sctp 1500 ------- 1 0.0 2.0 -1 45
+ 5.41512 2 1 sctp 48 ------- 0 2.0 0.0 -1 47
- 5.41512 2 1 sctp 48 ------- 0 2.0 0.0 -1 47
r 5.42568 0 1 sctp 1500 ------- 1 0.0 2.0 -1 46
+ 5.42568 1 2 sctp 1500 ------- 1 0.0 2.0 -1 46
- 5.43512 1 2 sctp 1500 ------- 1 0.0 2.0 -1 28
r 5.50472 2 1 sctp 48 ------- 0 2.0 0.0 -1 47
+ 5.50472 1 0 sctp 48 ------- 0 2.0 0.0 -1 47
- 5.50472 1 0 sctp 48 ------- 0 2.0 0.0 -1 47
r 5.51512 1 2 sctp 1500 ------- 1 0.0 2.0 -1 27
r 5.58568 1 0 sctp 48 ------- 0 2.0 0.0 -1 47
+ 5.58568 0 1 sctp 1500 ------- 1 0.0 2.0 -1 48
- 5.58568 0 1 sctp 1500 ------- 1 0.0 2.0 -1 48
+ 5.58568 0 1 sctp 1500 ------- 1 0.0 2.0 -1 49
- 5.61568 0 1 sctp 1500 ------- 1 0.0 2.0 -1 49
r 5.69568 0 1 sctp 1500 ------- 1 0.0 2.0 -1 48
+ 5.69568 1 2 sctp 1500 ------- 1 0.0 2.0 -1 48
+ 5.71512 2 1 sctp 48 ------- 0 2.0 0.0 -1 50
- 5.71512 2 1 sctp 48 ------- 0 2.0 0.0 -1 50
r 5.72568 0 1 sctp 1500 ------- 1 0.0 2.0 -1 49
+ 5.72568 1 2 sctp 1500 ------- 1 0.0 2.0 -1 49
- 5.73512 1 2 sctp 1500 ------- 1 0.0 2.0 -1 30
r 5.80472 2 1 sctp 48 ------- 0 2.0 0.0 -1 50
+ 5.80472 1 0 sctp 48 ------- 0 2.0 0.0 -1 50
- 5.80472 1 0 sctp 48 ------- 0 2.0 0.0 -1 50
r 5.81512 1 2 sctp 1500 ------- 1 0.0 2.0 -1 28
r 5.88568 1 0 sctp 48 ------- 0 2.0 0.0 -1 50
+ 5.88568 0 1 sctp 1500 ------- 1 0.0 2.0 -1 51
- 5.88568 0 1 sctp 1500 ------- 1 0.0 2.0 -1 51
+ 5.88568 0 1 sctp 1500 ------- 1 0.0 2.0 -1 52
- 5.91568 0 1 sctp 1500 ------- 1 0.0 2.0 -1 52
r 5.99568 0 1 sctp 1500 ------- 1 0.0 2.0 -1 51
+ 5.99568 1 2 sctp 1500 ------- 1 0.0 2.0 -1 51
+ 6.01512 2 1 sctp 48 ------- 0 2.0 0.0 -1 53
- 6.01512 2 1 sctp 48 ------- 0 2.0 0.0 -1 53
r 6.02568 0 1 sctp 1500 ------- 1 0.0 2.0 -1 52
+ 6.02568 1 2 sctp 1500 ------- 1 0.0 2.0 -1 52
- 6.03512 1 2 sctp 1500 ------- 1 0.0 2.0 -1 31
r 6.10472 2 1 sctp 48 ------- 0 2.0 0.0 -1 53
+ 6.10472 1 0 sctp 48 ------- 0 2.0 0.0 -1 53
- 6.10472 1 0 sctp 48 ------- 0 2.0 0.0 -1 53
r 6.11512 1 2 sctp 1500 ------- 1 0.0 2.0 -1 30
r 6.18568 1 0 sctp 48 ------- 0 2.0 0.0 -1 53
+ 6.18568 0 1 sctp 1500 ------- 1 0.0 2.0 -1 54
- 6.18568 0 1 sctp 1500 ------- 1 0.0 2.0 -1 54
+ 6.18568 0 1 sctp 1500 ------- 1 0.0 2.0 -1 55
- 6.21568 0 1 sctp 1500 ------- 1 0.0 2.0 -1 55
r 6.29568 0 1 sctp 1500 ------- 1 0.0 2.0 -1 54
+ 6.29568 1 2 sctp 1500 ------- 1 0.0 2.0 -1 54
+ 6.31512 2 1 sctp 48 ------- 0 2.0 0.0 -1 56
- 6.31512 2 1 sctp 48 ------- 0 2.0 0.0 -1 56
r 6.32568 0 1 sctp 1500 ------- 1 0.0 2.0 -1 55
+ 6.32568 1 2 sctp 1500 ------- 1 0.0 2.0 -1 55
- 6.33512 1 2 sctp 1500 ------- 1 0.0 2.0 -1 33
r 6.40472 2 1 sctp 48 ------- 0 2.0 0.0 -1 56
+ 6.40472 1 0 sctp 48 ------- 0 2.0 0.0 -1 56
- 6.40472 1 0 sctp 48 ------- 0 2.0 0.0 -1 56
r 6.41512 1 2 sctp 1500 ------- 1 0.0 2.0 -1 31
r 6.48568 1 0 sctp 48 ------- 0 2.0 0.0 -1 56
+ 6.48568 0 1 sctp 1500 ------- 1 0.0 2.0 -1 57
- 6.48568 0 1 sctp 1500 ------- 1 0.0 2.0 -1 57
+ 6.48568 0 1 sctp 1500 ------- 1 0.0 2.0 -1 58
- 6.51568 0 1 sctp 1500 ------- 1 0.0 2.0 -1 58
r 6.59568 0 1 sctp 1500 ------- 1 0.0 2.0 -1 57
+ 6.59568 1 2 sctp 1500 ------- 1 0.0 2.0 -1 57
+ 6.61512 2 1 sctp 48 ------- 0 2.0 0.0 -1 59
- 6.61512 2 1 sctp 48 ------- 0 2.0 0.0 -1 59
r 6.62568 0 1 sctp 1500 ------- 1 0.0 2.0 -1 58
+ 6.62568 1 2 sctp 1500 ------- 1 0.0 2.0 -1 58
- 6.63512 1 2 sctp 1500 ------- 1 0.0 2.0 -1 34
r 6.70472 2 1 sctp 48 ------- 0 2.0 0.0 -1 59
+ 6.70472 1 0 sctp 48 ------- 0 2.0 0.0 -1 59
- 6.70472 1 0 sctp 48 ------- 0 2.0 0.0 -1 59
r 6.71512 1 2 sctp 1500 ------- 1 0.0 2.0 -1 33
r 6.78568 1 0 sctp 48 ------- 0 2.0 0.0 -1 59
+ 6.78568 0 1 sctp 1500 ------- 1 0.0 2.0 -1 60
- 6.78568 0 1 sctp 1500 ------- 1 0.0 2.0 -1 60
+ 6.78568 0 1 sctp 1500 ------- 1 0.0 2.0 -1 61
- 6.81568 0 1 sctp 1500 ------- 1 0.0 2.0 -1 61
r 6.89568 0 1 sctp 1500 ------- 1 0.0 2.0 -1 60
+ 6.89568 1 2 sctp 1500 ------- 1 0.0 2.0 -1 60
+ 6.91512 2 1 sctp 48 ------- 0 2.0 0.0 -1 62
- 6.91512 2 1 sctp 48 ------- 0 2.0 0.0 -1 62
r 6.92568 0 1 sctp 1500 ------- 1 0.0 2.0 -1 61
+ 6.92568 1 2 sctp 1500 ------- 1 0.0 2.0 -1 61
- 6.93512 1 2 sctp 1500 ------- 1 0.0 2.0 -1 36
r 7.00472 2 1 sctp 48 ------- 0 2.0 0.0 -1 62
+ 7.00472 1 0 sctp 48 ------- 0 2.0 0.0 -1 62
- 7.00472 1 0 sctp 48 ------- 0 2.0 0.0 -1 62
r 7.01512 1 2 sctp 1500 ------- 1 0.0 2.0 -1 34
r 7.08568 1 0 sctp 48 ------- 0 2.0 0.0 -1 62
+ 7.08568 0 1 sctp 1500 ------- 1 0.0 2.0 -1 63
- 7.08568 0 1 sctp 1500 ------- 1 0.0 2.0 -1 63
+ 7.08568 0 1 sctp 1500 ------- 1 0.0 2.0 -1 64
- 7.11568 0 1 sctp 1500 ------- 1 0.0 2.0 -1 64
r 7.19568 0 1 sctp 1500 ------- 1 0.0 2.0 -1 63
+ 7.19568 1 2 sctp 1500 ------- 1 0.0 2.0 -1 63
+ 7.21512 2 1 sctp 48 ------- 0 2.0 0.0 -1 65
- 7.21512 2 1 sctp 48 ------- 0 2.0 0.0 -1 65
r 7.22568 0 1 sctp 1500 ------- 1 0.0 2.0 -1 64
+ 7.22568 1 2 sctp 1500 ------- 1 0.0 2.0 -1 64
- 7.23512 1 2 sctp 1500 ------- 1 0.0 2.0 -1 37
r 7.30472 2 1 sctp 48 ------- 0 2.0 0.0 -1 65
+ 7.30472 1 0 sctp 48 ------- 0 2.0 0.0 -1 65
- 7.30472 1 0 sctp 48 ------- 0 2.0 0.0 -1 65
r 7.31512 1 2 sctp 1500 ------- 1 0.0 2.0 -1 36
r 7.38568 1 0 sctp 48 ------- 0 2.0 0.0 -1 65
+ 7.38568 0 1 sctp 1500 ------- 1 0.0 2.0 -1 66
- 7.38568 0 1 sctp 1500 ------- 1 0.0 2.0 -1 66
+ 7.38568 0 1 sctp 1500 ------- 1 0.0 2.0 -1 67
- 7.41568 0 1 sctp 1500 ------- 1 0.0 2.0 -1 67
r 7.49568 0 1 sctp 1500 ------- 1 0.0 2.0 -1 66
+ 7.49568 1 2 sctp 1500 ------- 1 0.0 2.0 -1 66
+ 7.51512 2 1 sctp 48 ------- 0 2.0 0.0 -1 68
- 7.51512 2 1 sctp 48 ------- 0 2.0 0.0 -1 68
r 7.52568 0 1 sctp 1500 ------- 1 0.0 2.0 -1 67
+ 7.52568 1 2 sctp 1500 ------- 1 0.0 2.0 -1 67
- 7.53512 1 2 sctp 1500 ------- 1 0.0 2.0 -1 39
r 7.60472 2 1 sctp 48 ------- 0 2.0 0.0 -1 68
+ 7.60472 1 0 sctp 48 ------- 0 2.0 0.0 -1 68
- 7.60472 1 0 sctp 48 ------- 0 2.0 0.0 -1 68
r 7.61512 1 2 sctp 1500 ------- 1 0.0 2.0 -1 37
r 7.68568 1 0 sctp 48 ------- 0 2.0 0.0 -1 68
+ 7.68568 0 1 sctp 1500 ------- 1 0.0 2.0 -1 69
- 7.68568 0 1 sctp 1500 ------- 1 0.0 2.0 -1 69
+ 7.68568 0 1 sctp 1500 ------- 1 0.0 2.0 -1 70
- 7.71568 0 1 sctp 1500 ------- 1 0.0 2.0 -1 70
r 7.79568 0 1 sctp 1500 ------- 1 0.0 2.0 -1 69
+ 7.79568 1 2 sctp 1500 ------- 1 0.0 2.0 -1 69
+ 7.81512 2 1 sctp 48 ------- 0 2.0 0.0 -1 71
- 7.81512 2 1 sctp 48 ------- 0 2.0 0.0 -1 71
r 7.82568 0 1 sctp 1500 ------- 1 0.0 2.0 -1 70
+ 7.82568 1 2 sctp 1500 ------- 1 0.0 2.0 -1 70
- 7.83512 1 2 sctp 1500 ------- 1 0.0 2.0 -1 40
r 7.90472 2 1 sctp 48 ------- 0 2.0 0.0 -1 71
+ 7.90472 1 0 sctp 48 ------- 0 2.0 0.0 -1 71
- 7.90472 1 0 sctp 48 ------- 0 2.0 0.0 -1 71
r 7.91512 1 2 sctp 1500 ------- 1 0.0 2.0 -1 39
r 7.98568 1 0 sctp 48 ------- 0 2.0 0.0 -1 71
+ 7.98568 0 1 sctp 1500 ------- 1 0.0 2.0 -1 72
- 7.98568 0 1 sctp 1500 ------- 1 0.0 2.0 -1 72
+ 7.98568 0 1 sctp 1500 ------- 1 0.0 2.0 -1 73
- 8.01568 0 1 sctp 1500 ------- 1 0.0 2.0 -1 73
r 8.09568 0 1 sctp 1500 ------- 1 0.0 2.0 -1 72
+ 8.09568 1 2 sctp 1500 ------- 1 0.0 2.0 -1 72
+ 8.11512 2 1 sctp 48 ------- 0 2.0 0.0 -1 74
- 8.11512 2 1 sctp 48 ------- 0 2.0 0.0 -1 74
r 8.12568 0 1 sctp 1500 ------- 1 0.0 2.0 -1 73
+ 8.12568 1 2 sctp 1500 ------- 1 0.0 2.0 -1 73
- 8.13512 1 2 sctp 1500 ------- 1 0.0 2.0 -1 42
r 8.20472 2 1 sctp 48 ------- 0 2.0 0.0 -1 74
+ 8.20472 1 0 sctp 48 ------- 0 2.0 0.0 -1 74
- 8.20472 1 0 sctp 48 ------- 0 2.0 0.0 -1 74
r 8.21512 1 2 sctp 1500 ------- 1 0.0 2.0 -1 40
r 8.28568 1 0 sctp 48 ------- 0 2.0 0.0 -1 74
+ 8.28568 0 1 sctp 1500 ------- 1 0.0 2.0 -1 75
- 8.28568 0 1 sctp 1500 ------- 1 0.0 2.0 -1 75
+ 8.28568 0 1 sctp 1500 ------- 1 0.0 2.0 -1 76
- 8.31568 0 1 sctp 1500 ------- 1 0.0 2.0 -1 76
r 8.39568 0 1 sctp 1500 ------- 1 0.0 2.0 -1 75
+ 8.39568 1 2 sctp 1500 ------- 1 0.0 2.0 -1 75
+ 8.41512 2 1 sctp 48 ------- 0 2.0 0.0 -1 77
- 8.41512 2 1 sctp 48 ------- 0 2.0 0.0 -1 77
r 8.42568 0 1 sctp 1500 ------- 1 0.0 2.0 -1 76
+ 8.42568 1 2 sctp 1500 ------- 1 0.0 2.0 -1 76
- 8.43512 1 2 sctp 1500 ------- 1 0.0 2.0 -1 43
r 8.50472 2 1 sctp 48 ------- 0 2.0 0.0 -1 77
+ 8.50472 1 0 sctp 48 ------- 0 2.0 0.0 -1 77
- 8.50472 1 0 sctp 48 ------- 0 2.0 0.0 -1 77
r 8.51512 1 2 sctp 1500 ------- 1 0.0 2.0 -1 42
r 8.58568 1 0 sctp 48 ------- 0 2.0 0.0 -1 77
+ 8.58568 0 1 sctp 1500 ------- 1 0.0 2.0 -1 78
- 8.58568 0 1 sctp 1500 ------- 1 0.0 2.0 -1 78
+ 8.58568 0 1 sctp 1500 ------- 1 0.0 2.0 -1 79
- 8.61568 0 1 sctp 1500 ------- 1 0.0 2.0 -1 79
r 8.69568 0 1 sctp 1500 ------- 1 0.0 2.0 -1 78
+ 8.69568 1 2 sctp 1500 ------- 1 0.0 2.0 -1 78
+ 8.71512 2 1 sctp 48 ------- 0 2.0 0.0 -1 80
- 8.71512 2 1 sctp 48 ------- 0 2.0 0.0 -1 80
r 8.72568 0 1 sctp 1500 ------- 1 0.0 2.0 -1 79
+ 8.72568 1 2 sctp 1500 ------- 1 0.0 2.0 -1 79
- 8.73512 1 2 sctp 1500 ------- 1 0.0 2.0 -1 45
r 8.80472 2 1 sctp 48 ------- 0 2.0 0.0 -1 80
+ 8.80472 1 0 sctp 48 ------- 0 2.0 0.0 -1 80
- 8.80472 1 0 sctp 48 ------- 0 2.0 0.0 -1 80
r 8.81512 1 2 sctp 1500 ------- 1 0.0 2.0 -1 43
r 8.88568 1 0 sctp 48 ------- 0 2.0 0.0 -1 80
+ 8.88568 0 1 sctp 1500 ------- 1 0.0 2.0 -1 81
- 8.88568 0 1 sctp 1500 ------- 1 0.0 2.0 -1 81
+ 8.88568 0 1 sctp 1500 ------- 1 0.0 2.0 -1 82
- 8.91568 0 1 sctp 1500 ------- 1 0.0 2.0 -1 82
r 8.99568 0 1 sctp 1500 ------- 1 0.0 2.0 -1 81
+ 8.99568 1 2 sctp 1500 ------- 1 0.0 2.0 -1 81
+ 9.01512 2 1 sctp 48 ------- 0 2.0 0.0 -1 83
- 9.01512 2 1 sctp 48 ------- 0 2.0 0.0 -1 83
r 9.02568 0 1 sctp 1500 ------- 1 0.0 2.0 -1 82
+ 9.02568 1 2 sctp 1500 ------- 1 0.0 2.0 -1 82
- 9.03512 1 2 sctp 1500 ------- 1 0.0 2.0 -1 46
r 9.10472 2 1 sctp 48 ------- 0 2.0 0.0 -1 83
+ 9.10472 1 0 sctp 48 ------- 0 2.0 0.0 -1 83
- 9.10472 1 0 sctp 48 ------- 0 2.0 0.0 -1 83
r 9.11512 1 2 sctp 1500 ------- 1 0.0 2.0 -1 45
r 9.18568 1 0 sctp 48 ------- 0 2.0 0.0 -1 83
+ 9.18568 0 1 sctp 1500 ------- 1 0.0 2.0 -1 84
- 9.18568 0 1 sctp 1500 ------- 1 0.0 2.0 -1 84
+ 9.18568 0 1 sctp 1500 ------- 1 0.0 2.0 -1 85
- 9.21568 0 1 sctp 1500 ------- 1 0.0 2.0 -1 85
r 9.29568 0 1 sctp 1500 ------- 1 0.0 2.0 -1 84
+ 9.29568 1 2 sctp 1500 ------- 1 0.0 2.0 -1 84
+ 9.31512 2 1 sctp 48 ------- 0 2.0 0.0 -1 86
- 9.31512 2 1 sctp 48 ------- 0 2.0 0.0 -1 86
r 9.32568 0 1 sctp 1500 ------- 1 0.0 2.0 -1 85
+ 9.32568 1 2 sctp 1500 ------- 1 0.0 2.0 -1 85
- 9.33512 1 2 sctp 1500 ------- 1 0.0 2.0 -1 48
r 9.40472 2 1 sctp 48 ------- 0 2.0 0.0 -1 86
+ 9.40472 1 0 sctp 48 ------- 0 2.0 0.0 -1 86
- 9.40472 1 0 sctp 48 ------- 0 2.0 0.0 -1 86
r 9.41512 1 2 sctp 1500 ------- 1 0.0 2.0 -1 46
r 9.48568 1 0 sctp 48 ------- 0 2.0 0.0 -1 86
+ 9.48568 0 1 sctp 1500 ------- 1 0.0 2.0 -1 87
- 9.48568 0 1 sctp 1500 ------- 1 0.0 2.0 -1 87
+ 9.48568 0 1 sctp 1500 ------- 1 0.0 2.0 -1 88
- 9.51568 0 1 sctp 1500 ------- 1 0.0 2.0 -1 88
r 9.59568 0 1 sctp 1500 ------- 1 0.0 2.0 -1 87
+ 9.59568 1 2 sctp 1500 ------- 1 0.0 2.0 -1 87
+ 9.61512 2 1 sctp 48 ------- 0 2.0 0.0 -1 89
- 9.61512 2 1 sctp 48 ------- 0 2.0 0.0 -1 89
r 9.62568 0 1 sctp 1500 ------- 1 0.0 2.0 -1 88
+ 9.62568 1 2 sctp 1500 ------- 1 0.0 2.0 -1 88
- 9.63512 1 2 sctp 1500 ------- 1 0.0 2.0 -1 49
r 9.70472 2 1 sctp 48 ------- 0 2.0 0.0 -1 89
+ 9.70472 1 0 sctp 48 ------- 0 2.0 0.0 -1 89
- 9.70472 1 0 sctp 48 ------- 0 2.0 0.0 -1 89
r 9.71512 1 2 sctp 1500 ------- 1 0.0 2.0 -1 48
r 9.78568 1 0 sctp 48 ------- 0 2.0 0.0 -1 89
+ 9.78568 0 1 sctp 1500 ------- 1 0.0 2.0 -1 90
- 9.78568 0 1 sctp 1500 ------- 1 0.0 2.0 -1 90
+ 9.78568 0 1 sctp 1500 ------- 1 0.0 2.0 -1 91
- 9.81568 0 1 sctp 1500 ------- 1 0.0 2.0 -1 91
r 9.89568 0 1 sctp 1500 ------- 1 0.0 2.0 -1 90
+ 9.89568 1 2 sctp 1500 ------- 1 0.0 2.0 -1 90
+ 9.91512 2 1 sctp 48 ------- 0 2.0 0.0 -1 92
- 9.91512 2 1 sctp 48 ------- 0 2.0 0.0 -1 92
r 9.92568 0 1 sctp 1500 ------- 1 0.0 2.0 -1 91
+ 9.92568 1 2 sctp 1500 ------- 1 0.0 2.0 -1 91
- 9.93512 1 2 sctp 1500 ------- 1 0.0 2.0 -1 51
r 10.00472 2 1 sctp 48 ------- 0 2.0 0.0 -1 92
+ 10.00472 1 0 sctp 48 ------- 0 2.0 0.0 -1 92
- 10.00472 1 0 sctp 48 ------- 0 2.0 0.0 -1 92
r 10.01512 1 2 sctp 1500 ------- 1 0.0 2.0 -1 49
r 10.08568 1 0 sctp 48 ------- 0 2.0 0.0 -1 92
+ 10.08568 0 1 sctp 1500 ------- 1 0.0 2.0 -1 93
- 10.08568 0 1 sctp 1500 ------- 1 0.0 2.0 -1 93
+ 10.08568 0 1 sctp 1500 ------- 1 0.0 2.0 -1 94
- 10.11568 0 1 sctp 1500 ------- 1 0.0 2.0 -1 94
r 10.19568 0 1 sctp 1500 ------- 1 0.0 2.0 -1 93
+ 10.19568 1 2 sctp 1500 ------- 1 0.0 2.0 -1 93
+ 10.21512 2 1 sctp 48 ------- 0 2.0 0.0 -1 95
- 10.21512 2 1 sctp 48 ------- 0 2.0 0.0 -1 95
r 10.22568 0 1 sctp 1500 ------- 1 0.0 2.0 -1 94
+ 10.22568 1 2 sctp 1500 ------- 1 0.0 2.0 -1 94
- 10.23512 1 2 sctp 1500 ------- 1 0.0 2.0 -1 52
r 10.30472 2 1 sctp 48 ------- 0 2.0 0.0 -1 95
+ 10.30472 1 0 sctp 48 ------- 0 2.0 0.0 -1 95
- 10.30472 1 0 sctp 48 ------- 0 2.0 0.0 -1 95
r 10.31512 1 2 sctp 1500 ------- 1 0.0 2.0 -1 51
r 10.38568 1 0 sctp 48 ------- 0 2.0 0.0 -1 95
+ 10.38568 0 1 sctp 1500 ------- 1 0.0 2.0 -1 96
- 10.38568 0 1 sctp 1500 ------- 1 0.0 2.0 -1 96
+ 10.38568 0 1 sctp 1500 ------- 1 0.0 2.0 -1 97
- 10.41568 0 1 sctp 1500 ------- 1 0.0 2.0 -1 97
r 10.49568 0 1 sctp 1500 ------- 1 0.0 2.0 -1 96
+ 10.49568 1 2 sctp 1500 ------- 1 0.0 2.0 -1 96
+ 10.51512 2 1 sctp 48 ------- 0 2.0 0.0 -1 98
- 10.51512 2 1 sctp 48 ------- 0 2.0 0.0 -1 98
r 10.52568 0 1 sctp 1500 ------- 1 0.0 2.0 -1 97
+ 10.52568 1 2 sctp 1500 ------- 1 0.0 2.0 -1 97
- 10.53512 1 2 sctp 1500 ------- 1 0.0 2.0 -1 54
r 10.60472 2 1 sctp 48 ------- 0 2.0 0.0 -1 98
+ 10.60472 1 0 sctp 48 ------- 0 2.0 0.0 -1 98
- 10.60472 1 0 sctp 48 ------- 0 2.0 0.0 -1 98
r 10.61512 1 2 sctp 1500 ------- 1 0.0 2.0 -1 52
r 10.68568 1 0 sctp 48 ------- 0 2.0 0.0 -1 98
+ 10.68568 0 1 sctp 1500 ------- 1 0.0 2.0 -1 99
- 10.68568 0 1 sctp 1500 ------- 1 0.0 2.0 -1 99
+ 10.68568 0 1 sctp 1500 ------- 1 0.0 2.0 -1 100
- 10.71568 0 1 sctp 1500 ------- 1 0.0 2.0 -1 100
r 10.79568 0 1 sctp 1500 ------- 1 0.0 2.0 -1 99
+ 10.79568 1 2 sctp 1500 ------- 1 0.0 2.0 -1 99
+ 10.81512 2 1 sctp 48 ------- 0 2.0 0.0 -1 101
- 10.81512 2 1 sctp 48 ------- 0 2.0 0.0 -1 101
r 10.82568 0 1 sctp 1500 ------- 1 0.0 2.0 -1 100
+ 10.82568 1 2 sctp 1500 ------- 1 0.0 2.0 -1 100
- 10.83512 1 2 sctp 1500 ------- 1 0.0 2.0 -1 55
r 10.90472 2 1 sctp 48 ------- 0 2.0 0.0 -1 101
+ 10.90472 1 0 sctp 48 ------- 0 2.0 0.0 -1 101
- 10.90472 1 0 sctp 48 ------- 0 2.0 0.0 -1 101
r 10.91512 1 2 sctp 1500 ------- 1 0.0 2.0 -1 54
r 10.98568 1 0 sctp 48 ------- 0 2.0 0.0 -1 101
+ 10.98568 0 1 sctp 1500 ------- 1 0.0 2.0 -1 102
- 10.98568 0 1 sctp 1500 ------- 1 0.0 2.0 -1 102
+ 10.98568 0 1 sctp 1500 ------- 1 0.0 2.0 -1 103
- 11.01568 0 1 sctp 1500 ------- 1 0.0 2.0 -1 103
r 11.09568 0 1 sctp 1500 ------- 1 0.0 2.0 -1 102
+ 11.09568 1 2 sctp 1500 ------- 1 0.0 2.0 -1 102
+ 11.11512 2 1 sctp 48 ------- 0 2.0 0.0 -1 104
- 11.11512 2 1 sctp 48 ------- 0 2.0 0.0 -1 104
r 11.12568 0 1 sctp 1500 ------- 1 0.0 2.0 -1 103
+ 11.12568 1 2 sctp 1500 ------- 1 0.0 2.0 -1 103
- 11.13512 1 2 sctp 1500 ------- 1 0.0 2.0 -1 57
r 11.20472 2 1 sctp 48 ------- 0 2.0 0.0 -1 104
+ 11.20472 1 0 sctp 48 ------- 0 2.0 0.0 -1 104
- 11.20472 1 0 sctp 48 ------- 0 2.0 0.0 -1 104
r 11.21512 1 2 sctp 1500 ------- 1 0.0 2.0 -1 55
r 11.28568 1 0 sctp 48 ------- 0 2.0 0.0 -1 104
+ 11.28568 0 1 sctp 1500 ------- 1 0.0 2.0 -1 105
- 11.28568 0 1 sctp 1500 ------- 1 0.0 2.0 -1 105
+ 11.28568 0 1 sctp 1500 ------- 1 0.0 2.0 -1 106
- 11.31568 0 1 sctp 1500 ------- 1 0.0 2.0 -1 106
r 11.39568 0 1 sctp 1500 ------- 1 0.0 2.0 -1 105
+ 11.39568 1 2 sctp 1500 ------- 1 0.0 2.0 -1 105
+ 11.41512 2 1 sctp 48 ------- 0 2.0 0.0 -1 107
- 11.41512 2 1 sctp 48 ------- 0 2.0 0.0 -1 107
r 11.42568 0 1 sctp 1500 ------- 1 0.0 2.0 -1 106
+ 11.42568 1 2 sctp 1500 ------- 1 0.0 2.0 -1 106
- 11.43512 1 2 sctp 1500 ------- 1 0.0 2.0 -1 58
r 11.50472 2 1 sctp 48 ------- 0 2.0 0.0 -1 107
+ 11.50472 1 0 sctp 48 ------- 0 2.0 0.0 -1 107
- 11.50472 1 0 sctp 48 ------- 0 2.0 0.0 -1 107
r 11.51512 1 2 sctp 1500 ------- 1 0.0 2.0 -1 57
r 11.58568 1 0 sctp 48 ------- 0 2.0 0.0 -1 107
+ 11.58568 0 1 sctp 1500 ------- 1 0.0 2.0 -1 108
- 11.58568 0 1 sctp 1500 ------- 1 0.0 2.0 -1 108
+ 11.58568 0 1 sctp 1500 ------- 1 0.0 2.0 -1 109
- 11.61568 0 1 sctp 1500 ------- 1 0.0 2.0 -1 109
r 11.69568 0 1 sctp 1500 ------- 1 0.0 2.0 -1 108
+ 11.69568 1 2 sctp 1500 ------- 1 0.0 2.0 -1 108
+ 11.71512 2 1 sctp 48 ------- 0 2.0 0.0 -1 110
- 11.71512 2 1 sctp 48 ------- 0 2.0 0.0 -1 110
r 11.72568 0 1 sctp 1500 ------- 1 0.0 2.0 -1 109
+ 11.72568 1 2 sctp 1500 ------- 1 0.0 2.0 -1 109
- 11.73512 1 2 sctp 1500 ------- 1 0.0 2.0 -1 60
r 11.80472 2 1 sctp 48 ------- 0 2.0 0.0 -1 110
+ 11.80472 1 0 sctp 48 ------- 0 2.0 0.0 -1 110
- 11.80472 1 0 sctp 48 ------- 0 2.0 0.0 -1 110
r 11.81512 1 2 sctp 1500 ------- 1 0.0 2.0 -1 58
r 11.88568 1 0 sctp 48 ------- 0 2.0 0.0 -1 110
+ 11.88568 0 1 sctp 1500 ------- 1 0.0 2.0 -1 111
- 11.88568 0 1 sctp 1500 ------- 1 0.0 2.0 -1 111
+ 11.88568 0 1 sctp 1500 ------- 1 0.0 2.0 -1 112
- 11.91568 0 1 sctp 1500 ------- 1 0.0 2.0 -1 112
r 11.99568 0 1 sctp 1500 ------- 1 0.0 2.0 -1 111
+ 11.99568 1 2 sctp 1500 ------- 1 0.0 2.0 -1 111
+ 12.01512 2 1 sctp 48 ------- 0 2.0 0.0 -1 113
- 12.01512 2 1 sctp 48 ------- 0 2.0 0.0 -1 113
r 12.02568 0 1 sctp 1500 ------- 1 0.0 2.0 -1 112
+ 12.02568 1 2 sctp 1500 ------- 1 0.0 2.0 -1 112
- 12.03512 1 2 sctp 1500 ------- 1 0.0 2.0 -1 61
r 12.10472 2 1 sctp 48 ------- 0 2.0 0.0 -1 113
+ 12.10472 1 0 sctp 48 ------- 0 2.0 0.0 -1 113
- 12.10472 1 0 sctp 48 ------- 0 2.0 0.0 -1 113
r 12.11512 1 2 sctp 1500 ------- 1 0.0 2.0 -1 60
r 12.18568 1 0 sctp 48 ------- 0 2.0 0.0 -1 113
+ 12.18568 0 1 sctp 1500 ------- 1 0.0 2.0 -1 114
- 12.18568 0 1 sctp 1500 ------- 1 0.0 2.0 -1 114
+ 12.18568 0 1 sctp 1500 ------- 1 0.0 2.0 -1 115
- 12.21568 0 1 sctp 1500 ------- 1 0.0 2.0 -1 115
r 12.29568 0 1 sctp 1500 ------- 1 0.0 2.0 -1 114
+ 12.29568 1 2 sctp 1500 ------- 1 0.0 2.0 -1 114
+ 12.31512 2 1 sctp 48 ------- 0 2.0 0.0 -1 116
- 12.31512 2 1 sctp 48 ------- 0 2.0 0.0 -1 116
r 12.32568 0 1 sctp 1500 ------- 1 0.0 2.0 -1 115
+ 12.32568 1 2 sctp 1500 ------- 1 0.0 2.0 -1 115
- 12.33512 1 2 sctp 1500 ------- 1 0.0 2.0 -1 63
r 12.40472 2 1 sctp 48 ------- 0 2.0 0.0 -1 116
+ 12.40472 1 0 sctp 48 ------- 0 2.0 0.0 -1 116
- 12.40472 1 0 sctp 48 ------- 0 2.0 0.0 -1 116
r 12.41512 1 2 sctp 1500 ------- 1 0.0 2.0 -1 61
r 12.48568 1 0 sctp 48 ------- 0 2.0 0.0 -1 116
+ 12.48568 0 1 sctp 1500 ------- 1 0.0 2.0 -1 117
- 12.48568 0 1 sctp 1500 ------- 1 0.0 2.0 -1 117
+ 12.48568 0 1 sctp 1500 ------- 1 0.0 2.0 -1 118
- 12.51568 0 1 sctp 1500 ------- 1 0.0 2.0 -1 118
r 12.59568 0 1 sctp 1500 ------- 1 0.0 2.0 -1 117
+ 12.59568 1 2 sctp 1500 ------- 1 0.0 2.0 -1 117
+ 12.61512 2 1 sctp 48 ------- 0 2.0 0.0 -1 119
- 12.61512 2 1 sctp 48 ------- 0 2.0 0.0 -1 119
r 12.62568 0 1 sctp 1500 ------- 1 0.0 2.0 -1 118
+ 12.62568 1 2 sctp 1500 ------- 1 0.0 2.0 -1 118
- 12.63512 1 2 sctp 1500 ------- 1 0.0 2.0 -1 64
r 12.70472 2 1 sctp 48 ------- 0 2.0 0.0 -1 119
+ 12.70472 1 0 sctp 48 ------- 0 2.0 0.0 -1 119