+ 0.1 0 1 tcp 40 ------- 1 0.0 2.0 0 0
- 0.1 0 1 tcp 40 ------- 1 0.0 2.0 0 0
r 0.1808 0 1 tcp 40 ------- 1 0.0 2.0 0 0
+ 0.1808 1 2 tcp 40 ------- 1 0.0 2.0 0 0
- 0.1808 1 2 tcp 40 ------- 1 0.0 2.0 0 0
r 0.2688 1 2 tcp 40 ------- 1 0.0 2.0 0 0
+ 0.2688 2 1 ack 40 ------- 1 2.0 0.0 0 1
- 0.2688 2 1 ack 40 ------- 1 2.0 0.0 0 1
r 0.3568 2 1 ack 40 ------- 1 2.0 0.0 0 1
+ 0.3568 1 0 ack 40 ------- 1 2.0 0.0 0 1
- 0.3568 1 0 ack 40 ------- 1 2.0 0.0 0 1
r 0.4376 1 0 ack 40 ------- 1 2.0 0.0 0 1
+ 0.4376 0 1 tcp 1040 ------- 1 0.0 2.0 1 2
- 0.4376 0 1 tcp 1040 ------- 1 0.0 2.0 1 2
+ 0.4376 0 1 tcp 1040 ------- 1 0.0 2.0 2 3
- 0.4584 0 1 tcp 1040 ------- 1 0.0 2.0 2 3
r 0.5384 0 1 tcp 1040 ------- 1 0.0 2.0 1 2
+ 0.5384 1 2 tcp 1040 ------- 1 0.0 2.0 1 2
- 0.5384 1 2 tcp 1040 ------- 1 0.0 2.0 1 2
r 0.5592 0 1 tcp 1040 ------- 1 0.0 2.0 2 3
+ 0.5592 1 2 tcp 1040 ------- 1 0.0 2.0 2 3
- 0.7464 1 2 tcp 1040 ------- 1 0.0 2.0 2 3
r 0.8264 1 2 tcp 1040 ------- 1 0.0 2.0 1 2
+ 0.9264 2 1 ack 40 ------- 1 2.0 0.0 1 4
- 0.9264 2 1 ack 40 ------- 1 2.0 0.0 1 4
r 1.0144 2 1 ack 40 ------- 1 2.0 0.0 1 4
+ 1.0144 1 0 ack 40 ------- 1 2.0 0.0 1 4
- 1.0144 1 0 ack 40 ------- 1 2.0 0.0 1 4
r 1.0344 1 2 tcp 1040 ------- 1 0.0 2.0 2 3
r 1.0952 1 0 ack 40 ------- 1 2.0 0.0 1 4
+ 1.0952 0 1 tcp 1040 ------- 1 0.0 2.0 3 5
- 1.0952 0 1 tcp 1040 ------- 1 0.0 2.0 3 5
+ 1.0952 0 1 tcp 1040 ------- 1 0.0 2.0 4 6
- 1.116 0 1 tcp 1040 ------- 1 0.0 2.0 4 6
+ 1.1344 2 1 ack 40 ------- 1 2.0 0.0 2 7
- 1.1344 2 1 ack 40 ------- 1 2.0 0.0 2 7
r 1.196 0 1 tcp 1040 ------- 1 0.0 2.0 3 5
+ 1.196 1 2 tcp 1040 ------- 1 0.0 2.0 3 5
- 1.196 1 2 tcp 1040 ------- 1 0.0 2.0 3 5
r 1.2168 0 1 tcp 1040 ------- 1 0.0 2.0 4 6
+ 1.2168 1 2 tcp 1040 ------- 1 0.0 2.0 4 6
r 1.2224 2 1 ack 40 ------- 1 2.0 0.0 2 7
+ 1.2224 1 0 ack 40 ------- 1 2.0 0.0 2 7
- 1.2224 1 0 ack 40 ------- 1 2.0 0.0 2 7
r 1.3032 1 0 ack 40 ------- 1 2.0 0.0 2 7
+ 1.3032 0 1 tcp 1040 ------- 1 0.0 2.0 5 8
- 1.3032 0 1 tcp 1040 ------- 1 0.0 2.0 5 8
+ 1.3032 0 1 tcp 1040 ------- 1 0.0 2.0 6 9
- 1.324 0 1 tcp 1040 ------- 1 0.0 2.0 6 9
- 1.404 1 2 tcp 1040 ------- 1 0.0 2.0 4 6
r 1.404 0 1 tcp 1040 ------- 1 0.0 2.0 5 8
+ 1.404 1 2 tcp 1040 ------- 1 0.0 2.0 5 8
r 1.4248 0 1 tcp 1040 ------- 1 0.0 2.0 6 9
+ 1.4248 1 2 tcp 1040 ------- 1 0.0 2.0 6 9
r 1.484 1 2 tcp 1040 ------- 1 0.0 2.0 3 5
+ 1.584 2 1 ack 40 ------- 1 2.0 0.0 3 10
- 1.584 2 1 ack 40 ------- 1 2.0 0.0 3 10
- 1.612 1 2 tcp 1040 ------- 1 0.0 2.0 5 8
r 1.672 2 1 ack 40 ------- 1 2.0 0.0 3 10
+ 1.672 1 0 ack 40 ------- 1 2.0 0.0 3 10
- 1.672 1 0 ack 40 ------- 1 2.0 0.0 3 10
r 1.692 1 2 tcp 1040 ------- 1 0.0 2.0 4 6
r 1.7528 1 0 ack 40 ------- 1 2.0 0.0 3 10
+ 1.7528 0 1 tcp 1040 ------- 1 0.0 2.0 7 11
- 1.7528 0 1 tcp 1040 ------- 1 0.0 2.0 7 11
+ 1.7528 0 1 tcp 1040 ------- 1 0.0 2.0 8 12
- 1.7736 0 1 tcp 1040 ------- 1 0.0 2.0 8 12
+ 1.792 2 1 ack 40 ------- 1 2.0 0.0 4 13
- 1.792 2 1 ack 40 ------- 1 2.0 0.0 4 13
- 1.82 1 2 tcp 1040 ------- 1 0.0 2.0 6 9
r 1.8536 0 1 tcp 1040 ------- 1 0.0 2.0 7 11
+ 1.8536 1 2 tcp 1040 ------- 1 0.0 2.0 7 11
r 1.8744 0 1 tcp 1040 ------- 1 0.0 2.0 8 12
+ 1.8744 1 2 tcp 1040 ------- 1 0.0 2.0 8 12
r 1.88 2 1 ack 40 ------- 1 2.0 0.0 4 13
+ 1.88 1 0 ack 40 ------- 1 2.0 0.0 4 13
- 1.88 1 0 ack 40 ------- 1 2.0 0.0 4 13
r 1.9 1 2 tcp 1040 ------- 1 0.0 2.0 5 8
r 1.9608 1 0 ack 40 ------- 1 2.0 0.0 4 13
+ 1.9608 0 1 tcp 1040 ------- 1 0.0 2.0 9 14
- 1.9608 0 1 tcp 1040 ------- 1 0.0 2.0 9 14
+ 1.9608 0 1 tcp 1040 ------- 1 0.0 2.0 10 15
- 1.9816 0 1 tcp 1040 ------- 1 0.0 2.0 10 15
+ 2 2 1 ack 40 ------- 1 2.0 0.0 5 16
- 2 2 1 ack 40 ------- 1 2.0 0.0 5 16
- 2.028 1 2 tcp 1040 ------- 1 0.0 2.0 7 11
r 2.0616 0 1 tcp 1040 ------- 1 0.0 2.0 9 14
+ 2.0616 1 2 tcp 1040 ------- 1 0.0 2.0 9 14
r 2.0824 0 1 tcp 1040 ------- 1 0.0 2.0 10 15
+ 2.0824 1 2 tcp 1040 ------- 1 0.0 2.0 10 15
r 2.088 2 1 ack 40 ------- 1 2.0 0.0 5 16
+ 2.088 1 0 ack 40 ------- 1 2.0 0.0 5 16
- 2.088 1 0 ack 40 ------- 1 2.0 0.0 5 16
r 2.108 1 2 tcp 1040 ------- 1 0.0 2.0 6 9
r 2.1688 1 0 ack 40 ------- 1 2.0 0.0 5 16
+ 2.1688 0 1 tcp 1040 ------- 1 0.0 2.0 11 17
- 2.1688 0 1 tcp 1040 ------- 1 0.0 2.0 11 17
+ 2.1688 0 1 tcp 1040 ------- 1 0.0 2.0 12 18
- 2.1896 0 1 tcp 1040 ------- 1 0.0 2.0 12 18
+ 2.208 2 1 ack 40 ------- 1 2.0 0.0 6 19
- 2.208 2 1 ack 40 ------- 1 2.0 0.0 6 19
- 2.236 1 2 tcp 1040 ------- 1 0.0 2.0 8 12
r 2.2696 0 1 tcp 1040 ------- 1 0.0 2.0 11 17
+ 2.2696 1 2 tcp 1040 ------- 1 0.0 2.0 11 17
r 2.2904 0 1 tcp 1040 ------- 1 0.0 2.0 12 18
+ 2.2904 1 2 tcp 1040 ------- 1 0.0 2.0 12 18
r 2.296 2 1 ack 40 ------- 1 2.0 0.0 6 19
+ 2.296 1 0 ack 40 ------- 1 2.0 0.0 6 19
- 2.296 1 0 ack 40 ------- 1 2.0 0.0 6 19
r 2.316 1 2 tcp 1040 ------- 1 0.0 2.0 7 11
r 2.3768 1 0 ack 40 ------- 1 2.0 0.0 6 19
+ 2.3768 0 1 tcp 1040 ------- 1 0.0 2.0 13 20
- 2.3768 0 1 tcp 1040 ------- 1 0.0 2.0 13 20
+ 2.3768 0 1 tcp 1040 ------- 1 0.0 2.0 14 21
- 2.3976 0 1 tcp 1040 ------- 1 0.0 2.0 14 21
+ 2.416 2 1 ack 40 ------- 1 2.0 0.0 7 22
- 2.416 2 1 ack 40 ------- 1 2.0 0.0 7 22
- 2.444 1 2 tcp 1040 ------- 1 0.0 2.0 9 14
r 2.4776 0 1 tcp 1040 ------- 1 0.0 2.0 13 20
+ 2.4776 1 2 tcp 1040 ------- 1 0.0 2.0 13 20
r 2.4984 0 1 tcp 1040 ------- 1 0.0 2.0 14 21
+ 2.4984 1 2 tcp 1040 ------- 1 0.0 2.0 14 21
r 2.504 2 1 ack 40 ------- 1 2.0 0.0 7 22
+ 2.504 1 0 ack 40 ------- 1 2.0 0.0 7 22
- 2.504 1 0 ack 40 ------- 1 2.0 0.0 7 22
r 2.524 1 2 tcp 1040 ------- 1 0.0 2.0 8 12
r 2.5848 1 0 ack 40 ------- 1 2.0 0.0 7 22
+ 2.5848 0 1 tcp 1040 ------- 1 0.0 2.0 15 23
- 2.5848 0 1 tcp 1040 ------- 1 0.0 2.0 15 23
+ 2.5848 0 1 tcp 1040 ------- 1 0.0 2.0 16 24
- 2.6056 0 1 tcp 1040 ------- 1 0.0 2.0 16 24
+ 2.624 2 1 ack 40 ------- 1 2.0 0.0 8 25
- 2.624 2 1 ack 40 ------- 1 2.0 0.0 8 25
- 2.652 1 2 tcp 1040 ------- 1 0.0 2.0 10 15
r 2.6856 0 1 tcp 1040 ------- 1 0.0 2.0 15 23
+ 2.6856 1 2 tcp 1040 ------- 1 0.0 2.0 15 23
r 2.7064 0 1 tcp 1040 ------- 1 0.0 2.0 16 24
+ 2.7064 1 2 tcp 1040 ------- 1 0.0 2.0 16 24
r 2.712 2 1 ack 40 ------- 1 2.0 0.0 8 25
+ 2.712 1 0 ack 40 ------- 1 2.0 0.0 8 25
- 2.712 1 0 ack 40 ------- 1 2.0 0.0 8 25
r 2.732 1 2 tcp 1040 ------- 1 0.0 2.0 9 14
r 2.7928 1 0 ack 40 ------- 1 2.0 0.0 8 25
+ 2.7928 0 1 tcp 1040 ------- 1 0.0 2.0 17 26
- 2.7928 0 1 tcp 1040 ------- 1 0.0 2.0 17 26
+ 2.7928 0 1 tcp 1040 ------- 1 0.0 2.0 18 27
- 2.8136 0 1 tcp 1040 ------- 1 0.0 2.0 18 27
+ 2.832 2 1 ack 40 ------- 1 2.0 0.0 9 28
- 2.832 2 1 ack 40 ------- 1 2.0 0.0 9 28
- 2.86 1 2 tcp 1040 ------- 1 0.0 2.0 11 17
r 2.8936 0 1 tcp 1040 ------- 1 0.0 2.0 17 26
+ 2.8936 1 2 tcp 1040 ------- 1 0.0 2.0 17 26
r 2.9144 0 1 tcp 1040 ------- 1 0.0 2.0 18 27
+ 2.9144 1 2 tcp 1040 ------- 1 0.0 2.0 18 27
r 2.92 2 1 ack 40 ------- 1 2.0 0.0 9 28
+ 2.92 1 0 ack 40 ------- 1 2.0 0.0 9 28
- 2.92 1 0 ack 40 ------- 1 2.0 0.0 9 28
r 2.94 1 2 tcp 1040 ------- 1 0.0 2.0 10 15
r 3.0008 1 0 ack 40 ------- 1 2.0 0.0 9 28
+ 3.0008 0 1 tcp 1040 ------- 1 0.0 2.0 19 29
- 3.0008 0 1 tcp 1040 ------- 1 0.0 2.0 19 29
+ 3.0008 0 1 tcp 1040 ------- 1 0.0 2.0 20 30
- 3.0216 0 1 tcp 1040 ------- 1 0.0 2.0 20 30
+ 3.04 2 1 ack 40 ------- 1 2.0 0.0 10 31
- 3.04 2 1 ack 40 ------- 1 2.0 0.0 10 31
- 3.068 1 2 tcp 1040 ------- 1 0.0 2.0 12 18
r 3.1016 0 1 tcp 1040 ------- 1 0.0 2.0 19 29
+ 3.1016 1 2 tcp 1040 ------- 1 0.0 2.0 19 29
r 3.1224 0 1 tcp 1040 ------- 1 0.0 2.0 20 30
+ 3.1224 1 2 tcp 1040 ------- 1 0.0 2.0 20 30
r 3.128 2 1 ack 40 ------- 1 2.0 0.0 10 31
+ 3.128 1 0 ack 40 ------- 1 2.0 0.0 10 31
- 3.128 1 0 ack 40 ------- 1 2.0 0.0 10 31
r 3.148 1 2 tcp 1040 ------- 1 0.0 2.0 11 17
r 3.2088 1 0 ack 40 ------- 1 2.0 0.0 10 31
+ 3.2088 0 1 tcp 1040 ------- 1 0.0 2.0 21 32
- 3.2088 0 1 tcp 1040 ------- 1 0.0 2.0 21 32
+ 3.2088 0 1 tcp 1040 ------- 1 0.0 2.0 22 33
- 3.2296 0 1 tcp 1040 ------- 1 0.0 2.0 22 33
+ 3.248 2 1 ack 40 ------- 1 2.0 0.0 11 34
- 3.248 2 1 ack 40 ------- 1 2.0 0.0 11 34
- 3.276 1 2 tcp 1040 ------- 1 0.0 2.0 13 20
r 3.3096 0 1 tcp 1040 ------- 1 0.0 2.0 21 32
+ 3.3096 1 2 tcp 1040 ------- 1 0.0 2.0 21 32
r 3.3304 0 1 tcp 1040 ------- 1 0.0 2.0 22 33
+ 3.3304 1 2 tcp 1040 ------- 1 0.0 2.0 22 33
r 3.336 2 1 ack 40 ------- 1 2.0 0.0 11 34
+ 3.336 1 0 ack 40 ------- 1 2.0 0.0 11 34
- 3.336 1 0 ack 40 ------- 1 2.0 0.0 11 34
r 3.356 1 2 tcp 1040 ------- 1 0.0 2.0 12 18
r 3.4168 1 0 ack 40 ------- 1 2.0 0.0 11 34
+ 3.4168 0 1 tcp 1040 ------- 1 0.0 2.0 23 35
- 3.4168 0 1 tcp 1040 ------- 1 0.0 2.0 23 35
+ 3.4168 0 1 tcp 1040 ------- 1 0.0 2.0 24 36
- 3.4376 0 1 tcp 1040 ------- 1 0.0 2.0 24 36
+ 3.456 2 1 ack 40 ------- 1 2.0 0.0 12 37
- 3.456 2 1 ack 40 ------- 1 2.0 0.0 12 37
- 3.484 1 2 tcp 1040 ------- 1 0.0 2.0 14 21
r 3.5176 0 1 tcp 1040 ------- 1 0.0 2.0 23 35
+ 3.5176 1 2 tcp 1040 ------- 1 0.0 2.0 23 35
r 3.5384 0 1 tcp 1040 ------- 1 0.0 2.0 24 36
+ 3.5384 1 2 tcp 1040 ------- 1 0.0 2.0 24 36
r 3.544 2 1 ack 40 ------- 1 2.0 0.0 12 37
+ 3.544 1 0 ack 40 ------- 1 2.0 0.0 12 37
- 3.544 1 0 ack 40 ------- 1 2.0 0.0 12 37
r 3.564 1 2 tcp 1040 ------- 1 0.0 2.0 13 20
r 3.6248 1 0 ack 40 ------- 1 2.0 0.0 12 37
+ 3.6248 0 1 tcp 1040 ------- 1 0.0 2.0 25 38
- 3.6248 0 1 tcp 1040 ------- 1 0.0 2.0 25 38
+ 3.6248 0 1 tcp 1040 ------- 1 0.0 2.0 26 39
- 3.6456 0 1 tcp 1040 ------- 1 0.0 2.0 26 39
+ 3.664 2 1 ack 40 ------- 1 2.0 0.0 13 40
- 3.664 2 1 ack 40 ------- 1 2.0 0.0 13 40
- 3.692 1 2 tcp 1040 ------- 1 0.0 2.0 15 23
r 3.7256 0 1 tcp 1040 ------- 1 0.0 2.0 25 38
+ 3.7256 1 2 tcp 1040 ------- 1 0.0 2.0 25 38
r 3.7464 0 1 tcp 1040 ------- 1 0.0 2.0 26 39
+ 3.7464 1 2 tcp 1040 ------- 1 0.0 2.0 26 39
r 3.752 2 1 ack 40 ------- 1 2.0 0.0 13 40
+ 3.752 1 0 ack 40 ------- 1 2.0 0.0 13 40
- 3.752 1 0 ack 40 ------- 1 2.0 0.0 13 40
r 3.772 1 2 tcp 1040 ------- 1 0.0 2.0 14 21
r 3.8328 1 0 ack 40 ------- 1 2.0 0.0 13 40
+ 3.8328 0 1 tcp 1040 ------- 1 0.0 2.0 27 41
- 3.8328 0 1 tcp 1040 ------- 1 0.0 2.0 27 41
+ 3.8328 0 1 tcp 1040 ------- 1 0.0 2.0 28 42
- 3.8536 0 1 tcp 1040 ------- 1 0.0 2.0 28 42
+ 3.872 2 1 ack 40 ------- 1 2.0 0.0 14 43
- 3.872 2 1 ack 40 ------- 1 2.0 0.0 14 43
- 3.9 1 2 tcp 1040 ------- 1 0.0 2.0 16 24
r 3.9336 0 1 tcp 1040 ------- 1 0.0 2.0 27 41
+ 3.9336 1 2 tcp 1040 ------- 1 0.0 2.0 27 41
r 3.9544 0 1 tcp 1040 ------- 1 0.0 2.0 28 42
+ 3.9544 1 2 tcp 1040 ------- 1 0.0 2.0 28 42
r 3.96 2 1 ack 40 ------- 1 2.0 0.0 14 43
+ 3.96 1 0 ack 40 ------- 1 2.0 0.0 14 43
- 3.96 1 0 ack 40 ------- 1 2.0 0.0 14 43
r 3.98 1 2 tcp 1040 ------- 1 0.0 2.0 15 23
r 4.0408 1 0 ack 40 ------- 1 2.0 0.0 14 43
+ 4.0408 0 1 tcp 1040 ------- 1 0.0 2.0 29 44
- 4.0408 0 1 tcp 1040 ------- 1 0.0 2.0 29 44
+ 4.0408 0 1 tcp 1040 ------- 1 0.0 2.0 30 45
- 4.0616 0 1 tcp 1040 ------- 1 0.0 2.0 30 45
+ 4.08 2 1 ack 40 ------- 1 2.0 0.0 15 46
- 4.08 2 1 ack 40 ------- 1 2.0 0.0 15 46
- 4.108 1 2 tcp 1040 ------- 1 0.0 2.0 17 26
r 4.1416 0 1 tcp 1040 ------- 1 0.0 2.0 29 44
+ 4.1416 1 2 tcp 1040 ------- 1 0.0 2.0 29 44
r 4.1624 0 1 tcp 1040 ------- 1 0.0 2.0 30 45
+ 4.1624 1 2 tcp 1040 ------- 1 0.0 2.0 30 45
r 4.168 2 1 ack 40 ------- 1 2.0 0.0 15 46
+ 4.168 1 0 ack 40 ------- 1 2.0 0.0 15 46
- 4.168 1 0 ack 40 ------- 1 2.0 0.0 15 46
r 4.188 1 2 tcp 1040 ------- 1 0.0 2.0 16 24
r 4.2488 1 0 ack 40 ------- 1 2.0 0.0 15 46
+ 4.2488 0 1 tcp 1040 ------- 1 0.0 2.0 31 47
- 4.2488 0 1 tcp 1040 ------- 1 0.0 2.0 31 47
+ 4.2488 0 1 tcp 1040 ------- 1 0.0 2.0 32 48
- 4.2696 0 1 tcp 1040 ------- 1 0.0 2.0 32 48
+ 4.288 2 1 ack 40 ------- 1 2.0 0.0 16 49
- 4.288 2 1 ack 40 ------- 1 2.0 0.0 16 49
- 4.316 1 2 tcp 1040 ------- 1 0.0 2.0 18 27
r 4.3496 0 1 tcp 1040 ------- 1 0.0 2.0 31 47
+ 4.3496 1 2 tcp 1040 ------- 1 0.0 2.0 31 47
r 4.3704 0 1 tcp 1040 ------- 1 0.0 2.0 32 48
+ 4.3704 1 2 tcp 1040 ------- 1 0.0 2.0 32 48
r 4.376 2 1 ack 40 ------- 1 2.0 0.0 16 49
+ 4.376 1 0 ack 40 ------- 1 2.0 0.0 16 49
- 4.376 1 0 ack 40 ------- 1 2.0 0.0 16 49
r 4.396 1 2 tcp 1040 ------- 1 0.0 2.0 17 26
r 4.4568 1 0 ack 40 ------- 1 2.0 0.0 16 49
+ 4.4568 0 1 tcp 1040 ------- 1 0.0 2.0 33 50
- 4.4568 0 1 tcp 1040 ------- 1 0.0 2.0 33 50
+ 4.4568 0 1 tcp 1040 ------- 1 0.0 2.0 34 51
- 4.4776 0 1 tcp 1040 ------- 1 0.0 2.0 34 51
+ 4.496 2 1 ack 40 ------- 1 2.0 0.0 17 52
- 4.496 2 1 ack 40 ------- 1 2.0 0.0 17 52
- 4.524 1 2 tcp 1040 ------- 1 0.0 2.0 19 29
r 4.5576 0 1 tcp 1040 ------- 1 0.0 2.0 33 50
+ 4.5576 1 2 tcp 1040 ------- 1 0.0 2.0 33 50
r 4.5784 0 1 tcp 1040 ------- 1 0.0 2.0 34 51
+ 4.5784 1 2 tcp 1040 ------- 1 0.0 2.0 34 51
r 4.584 2 1 ack 40 ------- 1 2.0 0.0 17 52
+ 4.584 1 0 ack 40 ------- 1 2.0 0.0 17 52
- 4.584 1 0 ack 40 ------- 1 2.0 0.0 17 52
r 4.604 1 2 tcp 1040 ------- 1 0.0 2.0 18 27
r 4.6648 1 0 ack 40 ------- 1 2.0 0.0 17 52
+ 4.6648 0 1 tcp 1040 ------- 1 0.0 2.0 35 53
- 4.6648 0 1 tcp 1040 ------- 1 0.0 2.0 35 53
+ 4.6648 0 1 tcp 1040 ------- 1 0.0 2.0 36 54
- 4.6856 0 1 tcp 1040 ------- 1 0.0 2.0 36 54
+ 4.704 2 1 ack 40 ------- 1 2.0 0.0 18 55
- 4.704 2 1 ack 40 ------- 1 2.0 0.0 18 55
- 4.732 1 2 tcp 1040 ------- 1 0.0 2.0 20 30
r 4.7656 0 1 tcp 1040 ------- 1 0.0 2.0 35 53
+ 4.7656 1 2 tcp 1040 ------- 1 0.0 2.0 35 53
r 4.7864 0 1 tcp 1040 ------- 1 0.0 2.0 36 54
+ 4.7864 1 2 tcp 1040 ------- 1 0.0 2.0 36 54
r 4.792 2 1 ack 40 ------- 1 2.0 0.0 18 55
+ 4.792 1 0 ack 40 ------- 1 2.0 0.0 18 55
- 4.792 1 0 ack 40 ------- 1 2.0 0.0 18 55
r 4.812 1 2 tcp 1040 ------- 1 0.0 2.0 19 29
r 4.8728 1 0 ack 40 ------- 1 2.0 0.0 18 55
+ 4.8728 0 1 tcp 1040 ------- 1 0.0 2.0 37 56
- 4.8728 0 1 tcp 1040 ------- 1 0.0 2.0 37 56
+ 4.8728 0 1 tcp 1040 ------- 1 0.0 2.0 38 57
- 4.8936 0 1 tcp 1040 ------- 1 0.0 2.0 38 57
+ 4.912 2 1 ack 40 ------- 1 2.0 0.0 19 58
- 4.912 2 1 ack 40 ------- 1 2.0 0.0 19 58
- 4.94 1 2 tcp 1040 ------- 1 0.0 2.0 21 32
r 4.9736 0 1 tcp 1040 ------- 1 0.0 2.0 37 56
+ 4.9736 1 2 tcp 1040 ------- 1 0.0 2.0 37 56
r 4.9944 0 1 tcp 1040 ------- 1 0.0 2.0 38 57
+ 4.9944 1 2 tcp 1040 ------- 1 0.0 2.0 38 57
r 5 2 1 ack 40 ------- 1 2.0 0.0 19 58
+ 5 1 0 ack 40 ------- 1 2.0 0.0 19 58
- 5 1 0 ack 40 ------- 1 2.0 0.0 19 58
r 5.02 1 2 tcp 1040 ------- 1 0.0 2.0 20 30
r 5.0808 1 0 ack 40 ------- 1 2.0 0.0 19 58
+ 5.0808 0 1 tcp 1040 ------- 1 0.0 2.0 39 59
- 5.0808 0 1 tcp 1040 ------- 1 0.0 2.0 39 59
+ 5.12 2 1 ack 40 ------- 1 2.0 0.0 20 60
- 5.12 2 1 ack 40 ------- 1 2.0 0.0 20 60
- 5.148 1 2 tcp 1040 ------- 1 0.0 2.0 22 33
r 5.1816 0 1 tcp 1040 ------- 1 0.0 2.0 39 59
+ 5.1816 1 2 tcp 1040 ------- 1 0.0 2.0 39 59
r 5.208 2 1 ack 40 ------- 1 2.0 0.0 20 60
+ 5.208 1 0 ack 40 ------- 1 2.0 0.0 20 60
- 5.208 1 0 ack 40 ------- 1 2.0 0.0 20 60
r 5.228 1 2 tcp 1040 ------- 1 0.0 2.0 21 32
r 5.2888 1 0 ack 40 ------- 1 2.0 0.0 20 60
+ 5.2888 0 1 tcp 1040 ------- 1 0.0 2.0 40 61
- 5.2888 0 1 tcp 1040 ------- 1 0.0 2.0 40 61
+ 5.328 2 1 ack 40 ------- 1 2.0 0.0 21 62
- 5.328 2 1 ack 40 ------- 1 2.0 0.0 21 62
- 5.356 1 2 tcp 1040 ------- 1 0.0 2.0 23 35
r 5.3896 0 1 tcp 1040 ------- 1 0.0 2.0 40 61
+ 5.3896 1 2 tcp 1040 ------- 1 0.0 2.0 40 61
r 5.416 2 1 ack 40 ------- 1 2.0 0.0 21 62
+ 5.416 1 0 ack 40 ------- 1 2.0 0.0 21 62
- 5.416 1 0 ack 40 ------- 1 2.0 0.0 21 62
r 5.436 1 2 tcp 1040 ------- 1 0.0 2.0 22 33
r 5.4968 1 0 ack 40 ------- 1 2.0 0.0 21 62
+ 5.4968 0 1 tcp 1040 ------- 1 0.0 2.0 41 63
- 5.4968 0 1 tcp 1040 ------- 1 0.0 2.0 41 63
+ 5.536 2 1 ack 40 ------- 1 2.0 0.0 22 64
- 5.536 2 1 ack 40 ------- 1 2.0 0.0 22 64
- 5.564 1 2 tcp 1040 ------- 1 0.0 2.0 24 36
r 5.5976 0 1 tcp 1040 ------- 1 0.0 2.0 41 63
+ 5.5976 1 2 tcp 1040 ------- 1 0.0 2.0 41 63
r 5.624 2 1 ack 40 ------- 1 2.0 0.0 22 64
+ 5.624 1 0 ack 40 ------- 1 2.0 0.0 22 64
- 5.624 1 0 ack 40 ------- 1 2.0 0.0 22 64
r 5.644 1 2 tcp 1040 ------- 1 0.0 2.0 23 35
r 5.7048 1 0 ack 40 ------- 1 2.0 0.0 22 64
+ 5.7048 0 1 tcp 1040 ------- 1 0.0 2.0 42 65
- 5.7048 0 1 tcp 1040 ------- 1 0.0 2.0 42 65
+ 5.744 2 1 ack 40 ------- 1 2.0 0.0 23 66
- 5.744 2 1 ack 40 ------- 1 2.0 0.0 23 66
- 5.772 1 2 tcp 1040 ------- 1 0.0 2.0 25 38
r 5.8056 0 1 tcp 1040 ------- 1 0.0 2.0 42 65
+ 5.8056 1 2 tcp 1040 ------- 1 0.0 2.0 42 65
r 5.832 2 1 ack 40 ------- 1 2.0 0.0 23 66
+ 5.832 1 0 ack 40 ------- 1 2.0 0.0 23 66
- 5.832 1 0 ack 40 ------- 1 2.0 0.0 23 66
r 5.852 1 2 tcp 1040 ------- 1 0.0 2.0 24 36
r 5.9128 1 0 ack 40 ------- 1 2.0 0.0 23 66
+ 5.9128 0 1 tcp 1040 ------- 1 0.0 2.0 43 67
- 5.9128 0 1 tcp 1040 ------- 1 0.0 2.0 43 67
+ 5.952 2 1 ack 40 ------- 1 2.0 0.0 24 68
- 5.952 2 1 ack 40 ------- 1 2.0 0.0 24 68
- 5.98 1 2 tcp 1040 ------- 1 0.0 2.0 26 39
r 6.0136 0 1 tcp 1040 ------- 1 0.0 2.0 43 67
+ 6.0136 1 2 tcp 1040 ------- 1 0.0 2.0 43 67
r 6.04 2 1 ack 40 ------- 1 2.0 0.0 24 68
+ 6.04 1 0 ack 40 ------- 1 2.0 0.0 24 68
- 6.04 1 0 ack 40 ------- 1 2.0 0.0 24 68
r 6.06 1 2 tcp 1040 ------- 1 0.0 2.0 25 38
r 6.1208 1 0 ack 40 ------- 1 2.0 0.0 24 68
+ 6.1208 0 1 tcp 1040 ------- 1 0.0 2.0 44 69
- 6.1208 0 1 tcp 1040 ------- 1 0.0 2.0 44 69
+ 6.16 2 1 ack 40 ------- 1 2.0 0.0 25 70
- 6.16 2 1 ack 40 ------- 1 2.0 0.0 25 70
- 6.188 1 2 tcp 1040 ------- 1 0.0 2.0 27 41
r 6.2216 0 1 tcp 1040 ------- 1 0.0 2.0 44 69
+ 6.2216 1 2 tcp 1040 ------- 1 0.0 2.0 44 69
r 6.248 2 1 ack 40 ------- 1 2.0 0.0 25 70
+ 6.248 1 0 ack 40 ------- 1 2.0 0.0 25 70
- 6.248 1 0 ack 40 ------- 1 2.0 0.0 25 70
r 6.268 1 2 tcp 1040 ------- 1 0.0 2.0 26 39
r 6.3288 1 0 ack 40 ------- 1 2.0 0.0 25 70
+ 6.3288 0 1 tcp 1040 ------- 1 0.0 2.0 45 71
- 6.3288 0 1 tcp 1040 ------- 1 0.0 2.0 45 71
+ 6.368 2 1 ack 40 ------- 1 2.0 0.0 26 72
- 6.368 2 1 ack 40 ------- 1 2.0 0.0 26 72
- 6.396 1 2 tcp 1040 ------- 1 0.0 2.0 28 42
r 6.4296 0 1 tcp 1040 ------- 1 0.0 2.0 45 71
+ 6.4296 1 2 tcp 1040 ------- 1 0.0 2.0 45 71
r 6.456 2 1 ack 40 ------- 1 2.0 0.0 26 72
+ 6.456 1 0 ack 40 ------- 1 2.0 0.0 26 72
- 6.456 1 0 ack 40 ------- 1 2.0 0.0 26 72
r 6.476 1 2 tcp 1040 ------- 1 0.0 2.0 27 41
r 6.5368 1 0 ack 40 ------- 1 2.0 0.0 26 72
+ 6.5368 0 1 tcp 1040 ------- 1 0.0 2.0 46 73
- 6.5368 0 1 tcp 1040 ------- 1 0.0 2.0 46 73
+ 6.576 2 1 ack 40 ------- 1 2.0 0.0 27 74
- 6.576 2 1 ack 40 ------- 1 2.0 0.0 27 74
- 6.604 1 2 tcp 1040 ------- 1 0.0 2.0 29 44
r 6.6376 0 1 tcp 1040 ------- 1 0.0 2.0 46 73
+ 6.6376 1 2 tcp 1040 ------- 1 0.0 2.0 46 73
r 6.664 2 1 ack 40 ------- 1 2.0 0.0 27 74
+ 6.664 1 0 ack 40 ------- 1 2.0 0.0 27 74
- 6.664 1 0 ack 40 ------- 1 2.0 0.0 27 74
r 6.684 1 2 tcp 1040 ------- 1 0.0 2.0 28 42
r 6.7448 1 0 ack 40 ------- 1 2.0 0.0 27 74
+ 6.7448 0 1 tcp 1040 ------- 1 0.0 2.0 47 75
- 6.7448 0 1 tcp 1040 ------- 1 0.0 2.0 47 75
+ 6.784 2 1 ack 40 ------- 1 2.0 0.0 28 76
- 6.784 2 1 ack 40 ------- 1 2.0 0.0 28 76
- 6.812 1 2 tcp 1040 ------- 1 0.0 2.0 30 45
r 6.8456 0 1 tcp 1040 ------- 1 0.0 2.0 47 75
+ 6.8456 1 2 tcp 1040 ------- 1 0.0 2.0 47 75
r 6.872 2 1 ack 40 ------- 1 2.0 0.0 28 76
+ 6.872 1 0 ack 40 ------- 1 2.0 0.0 28 76
- 6.872 1 0 ack 40 ------- 1 2.0 0.0 28 76
r 6.892 1 2 tcp 1040 ------- 1 0.0 2.0 29 44
r 6.9528 1 0 ack 40 ------- 1 2.0 0.0 28 76
+ 6.9528 0 1 tcp 1040 ------- 1 0.0 2.0 48 77
- 6.9528 0 1 tcp 1040 ------- 1 0.0 2.0 48 77
+ 6.992 2 1 ack 40 ------- 1 2.0 0.0 29 78
- 6.992 2 1 ack 40 ------- 1 2.0 0.0 29 78
- 7.02 1 2 tcp 1040 ------- 1 0.0 2.0 31 47
r 7.0536 0 1 tcp 1040 ------- 1 0.0 2.0 48 77
+ 7.0536 1 2 tcp 1040 ------- 1 0.0 2.0 48 77
r 7.08 2 1 ack 40 ------- 1 2.0 0.0 29 78
+ 7.08 1 0 ack 40 ------- 1 2.0 0.0 29 78
- 7.08 1 0 ack 40 ------- 1 2.0 0.0 29 78
r 7.1 1 2 tcp 1040 ------- 1 0.0 2.0 30 45
r 7.1608 1 0 ack 40 ------- 1 2.0 0.0 29 78
+ 7.1608 0 1 tcp 1040 ------- 1 0.0 2.0 49 79
- 7.1608 0 1 tcp 1040 ------- 1 0.0 2.0 49 79
+ 7.2 2 1 ack 40 ------- 1 2.0 0.0 30 80
- 7.2 2 1 ack 40 ------- 1 2.0 0.0 30 80
- 7.228 1 2 tcp 1040 ------- 1 0.0 2.0 32 48
r 7.2616 0 1 tcp 1040 ------- 1 0.0 2.0 49 79
+ 7.2616 1 2 tcp 1040 ------- 1 0.0 2.0 49 79
r 7.288 2 1 ack 40 ------- 1 2.0 0.0 30 80
+ 7.288 1 0 ack 40 ------- 1 2.0 0.0 30 80
- 7.288 1 0 ack 40 ------- 1 2.0 0.0 30 80
r 7.308 1 2 tcp 1040 ------- 1 0.0 2.0 31 47
r 7.3688 1 0 ack 40 ------- 1 2.0 0.0 30 80
+ 7.3688 0 1 tcp 1040 ------- 1 0.0 2.0 50 81
- 7.3688 0 1 tcp 1040 ------- 1 0.0 2.0 50 81
+ 7.408 2 1 ack 40 ------- 1 2.0 0.0 31 82
- 7.408 2 1 ack 40 ------- 1 2.0 0.0 31 82
- 7.436 1 2 tcp 1040 ------- 1 0.0 2.0 33 50
r 7.4696 0 1 tcp 1040 ------- 1 0.0 2.0 50 81
+ 7.4696 1 2 tcp 1040 ------- 1 0.0 2.0 50 81
r 7.496 2 1 ack 40 ------- 1 2.0 0.0 31 82
+ 7.496 1 0 ack 40 ------- 1 2.0 0.0 31 82
- 7.496 1 0 ack 40 ------- 1 2.0 0.0 31 82
r 7.516 1 2 tcp 1040 ------- 1 0.0 2.0 32 48
r 7.5768 1 0 ack 40 ------- 1 2.0 0.0 31 82
+ 7.5768 0 1 tcp 1040 ------- 1 0.0 2.0 51 83
- 7.5768 0 1 tcp 1040 ------- 1 0.0 2.0 51 83
+ 7.616 2 1 ack 40 ------- 1 2.0 0.0 32 84
- 7.616 2 1 ack 40 ------- 1 2.0 0.0 32 84
- 7.644 1 2 tcp 1040 ------- 1 0.0 2.0 34 51
r 7.6776 0 1 tcp 1040 ------- 1 0.0 2.0 51 83
+ 7.6776 1 2 tcp 1040 ------- 1 0.0 2.0 51 83
r 7.704 2 1 ack 40 ------- 1 2.0 0.0 32 84
+ 7.704 1 0 ack 40 ------- 1 2.0 0.0 32 84
- 7.704 1 0 ack 40 ------- 1 2.0 0.0 32 84
r 7.724 1 2 tcp 1040 ------- 1 0.0 2.0 33 50
r 7.7848 1 0 ack 40 ------- 1 2.0 0.0 32 84
+ 7.7848 0 1 tcp 1040 ------- 1 0.0 2.0 52 85
- 7.7848 0 1 tcp 1040 ------- 1 0.0 2.0 52 85
+ 7.824 2 1 ack 40 ------- 1 2.0 0.0 33 86
- 7.824 2 1 ack 40 ------- 1 2.0 0.0 33 86
- 7.852 1 2 tcp 1040 ------- 1 0.0 2.0 35 53
r 7.8856 0 1 tcp 1040 ------- 1 0.0 2.0 52 85
+ 7.8856 1 2 tcp 1040 ------- 1 0.0 2.0 52 85
r 7.912 2 1 ack 40 ------- 1 2.0 0.0 33 86
+ 7.912 1 0 ack 40 ------- 1 2.0 0.0 33 86
- 7.912 1 0 ack 40 ------- 1 2.0 0.0 33 86
r 7.932 1 2 tcp 1040 ------- 1 0.0 2.0 34 51
r 7.9928 1 0 ack 40 ------- 1 2.0 0.0 33 86
+ 7.9928 0 1 tcp 1040 ------- 1 0.0 2.0 53 87
- 7.9928 0 1 tcp 1040 ------- 1 0.0 2.0 53 87
+ 8.032 2 1 ack 40 ------- 1 2.0 0.0 34 88
- 8.032 2 1 ack 40 ------- 1 2.0 0.0 34 88
- 8.06 1 2 tcp 1040 ------- 1 0.0 2.0 36 54
r 8.0936 0 1 tcp 1040 ------- 1 0.0 2.0 53 87
+ 8.0936 1 2 tcp 1040 ------- 1 0.0 2.0 53 87
r 8.12 2 1 ack 40 ------- 1 2.0 0.0 34 88
+ 8.12 1 0 ack 40 ------- 1 2.0 0.0 34 88
- 8.12 1 0 ack 40 ------- 1 2.0 0.0 34 88
r 8.14 1 2 tcp 1040 ------- 1 0.0 2.0 35 53
r 8.2008 1 0 ack 40 ------- 1 2.0 0.0 34 88
+ 8.2008 0 1 tcp 1040 ------- 1 0.0 2.0 54 89
- 8.2008 0 1 tcp 1040 ------- 1 0.0 2.0 54 89
+ 8.24 2 1 ack 40 ------- 1 2.0 0.0 35 90
- 8.24 2 1 ack 40 ------- 1 2.0 0.0 35 90
- 8.268 1 2 tcp 1040 ------- 1 0.0 2.0 37 56
r 8.3016 0 1 tcp 1040 ------- 1 0.0 2.0 54 89
+ 8.3016 1 2 tcp 1040 ------- 1 0.0 2.0 54 89
r 8.328 2 1 ack 40 ------- 1 2.0 0.0 35 90
+ 8.328 1 0 ack 40 ------- 1 2.0 0.0 35 90
- 8.328 1 0 ack 40 ------- 1 2.0 0.0 35 90
r 8.348 1 2 tcp 1040 ------- 1 0.0 2.0 36 54
r 8.4088 1 0 ack 40 ------- 1 2.0 0.0 35 90
+ 8.4088 0 1 tcp 1040 ------- 1 0.0 2.0 55 91
- 8.4088 0 1 tcp 1040 ------- 1 0.0 2.0 55 91
+ 8.448 2 1 ack 40 ------- 1 2.0 0.0 36 92
- 8.448 2 1 ack 40 ------- 1 2.0 0.0 36 92
- 8.476 1 2 tcp 1040 ------- 1 0.0 2.0 38 57
r 8.5096 0 1 tcp 1040 ------- 1 0.0 2.0 55 91
+ 8.5096 1 2 tcp 1040 ------- 1 0.0 2.0 55 91
r 8.536 2 1 ack 40 ------- 1 2.0 0.0 36 92
+ 8.536 1 0 ack 40 ------- 1 2.0 0.0 36 92
- 8.536 1 0 ack 40 ------- 1 2.0 0.0 36 92
r 8.556 1 2 tcp 1040 ------- 1 0.0 2.0 37 56
r 8.6168 1 0 ack 40 ------- 1 2.0 0.0 36 92
+ 8.6168 0 1 tcp 1040 ------- 1 0.0 2.0 56 93
- 8.6168 0 1 tcp 1040 ------- 1 0.0 2.0 56 93
+ 8.656 2 1 ack 40 ------- 1 2.0 0.0 37 94
- 8.656 2 1 ack 40 ------- 1 2.0 0.0 37 94
- 8.684 1 2 tcp 1040 ------- 1 0.0 2.0 39 59
r 8.7176 0 1 tcp 1040 ------- 1 0.0 2.0 56 93
+ 8.7176 1 2 tcp 1040 ------- 1 0.0 2.0 56 93
r 8.744 2 1 ack 40 ------- 1 2.0 0.0 37 94
+ 8.744 1 0 ack 40 ------- 1 2.0 0.0 37 94
- 8.744 1 0 ack 40 ------- 1 2.0 0.0 37 94
r 8.764 1 2 tcp 1040 ------- 1 0.0 2.0 38 57
r 8.8248 1 0 ack 40 ------- 1 2.0 0.0 37 94
+ 8.8248 0 1 tcp 1040 ------- 1 0.0 2.0 57 95
- 8.8248 0 1 tcp 1040 ------- 1 0.0 2.0 57 95
+ 8.864 2 1 ack 40 ------- 1 2.0 0.0 38 96
- 8.864 2 1 ack 40 ------- 1 2.0 0.0 38 96
- 8.892 1 2 tcp 1040 ------- 1 0.0 2.0 40 61
r 8.9256 0 1 tcp 1040 ------- 1 0.0 2.0 57 95
+ 8.9256 1 2 tcp 1040 ------- 1 0.0 2.0 57 95
r 8.952 2 1 ack 40 ------- 1 2.0 0.0 38 96
+ 8.952 1 0 ack 40 ------- 1 2.0 0.0 38 96
- 8.952 1 0 ack 40 ------- 1 2.0 0.0 38 96
r 8.972 1 2 tcp 1040 ------- 1 0.0 2.0 39 59
r 9.0328 1 0 ack 40 ------- 1 2.0 0.0 38 96
+ 9.0328 0 1 tcp 1040 ------- 1 0.0 2.0 58 97
- 9.0328 0 1 tcp 1040 ------- 1 0.0 2.0 58 97
+ 9.072 2 1 ack 40 ------- 1 2.0 0.0 39 98
- 9.072 2 1 ack 40 ------- 1 2.0 0.0 39 98
- 9.1 1 2 tcp 1040 ------- 1 0.0 2.0 41 63
r 9.1336 0 1 tcp 1040 ------- 1 0.0 2.0 58 97
+ 9.1336 1 2 tcp 1040 ------- 1 0.0 2.0 58 97
r 9.16 2 1 ack 40 ------- 1 2.0 0.0 39 98
+ 9.16 1 0 ack 40 ------- 1 2.0 0.0 39 98
- 9.16 1 0 ack 40 ------- 1 2.0 0.0 39 98
r 9.18 1 2 tcp 1040 ------- 1 0.0 2.0 40 61
r 9.2408 1 0 ack 40 ------- 1 2.0 0.0 39 98
+ 9.2408 0 1 tcp 1040 ------- 1 0.0 2.0 59 99
- 9.2408 0 1 tcp 1040 ------- 1 0.0 2.0 59 99
+ 9.28 2 1 ack 40 ------- 1 2.0 0.0 40 100
- 9.28 2 1 ack 40 ------- 1 2.0 0.0 40 100
- 9.308 1 2 tcp 1040 ------- 1 0.0 2.0 42 65
r 9.3416 0 1 tcp 1040 ------- 1 0.0 2.0 59 99
+ 9.3416 1 2 tcp 1040 ------- 1 0.0 2.0 59 99
r 9.368 2 1 ack 40 ------- 1 2.0 0.0 40 100
+ 9.368 1 0 ack 40 ------- 1 2.0 0.0 40 100
- 9.368 1 0 ack 40 ------- 1 2.0 0.0 40 100
r 9.388 1 2 tcp 1040 ------- 1 0.0 2.0 41 63
r 9.4488 1 0 ack 40 ------- 1 2.0 0.0 40 100
+ 9.4488 0 1 tcp 1040 ------- 1 0.0 2.0 60 101
- 9.4488 0 1 tcp 1040 ------- 1 0.0 2.0 60 101
+ 9.488 2 1 ack 40 ------- 1 2.0 0.0 41 102
- 9.488 2 1 ack 40 ------- 1 2.0 0.0 41 102
- 9.516 1 2 tcp 1040 ------- 1 0.0 2.0 43 67
r 9.5496 0 1 tcp 1040 ------- 1 0.0 2.0 60 101
+ 9.5496 1 2 tcp 1040 ------- 1 0.0 2.0 60 101
r 9.576 2 1 ack 40 ------- 1 2.0 0.0 41 102
+ 9.576 1 0 ack 40 ------- 1 2.0 0.0 41 102
- 9.576 1 0 ack 40 ------- 1 2.0 0.0 41 102
r 9.596 1 2 tcp 1040 ------- 1 0.0 2.0 42 65
r 9.6568 1 0 ack 40 ------- 1 2.0 0.0 41 102
+ 9.6568 0 1 tcp 1040 ------- 1 0.0 2.0 61 103
- 9.6568 0 1 tcp 1040 ------- 1 0.0 2.0 61 103
+ 9.696 2 1 ack 40 ------- 1 2.0 0.0 42 104
- 9.696 2 1 ack 40 ------- 1 2.0 0.0 42 104
- 9.724 1 2 tcp 1040 ------- 1 0.0 2.0 44 69
r 9.7576 0 1 tcp 1040 ------- 1 0.0 2.0 61 103
+ 9.7576 1 2 tcp 1040 ------- 1 0.0 2.0 61 103
r 9.784 2 1 ack 40 ------- 1 2.0 0.0 42 104
+ 9.784 1 0 ack 40 ------- 1 2.0 0.0 42 104
- 9.784 1 0 ack 40 ------- 1 2.0 0.0 42 104
r 9.804 1 2 tcp 1040 ------- 1 0.0 2.0 43 67
r 9.8648 1 0 ack 40 ------- 1 2.0 0.0 42 104
+ 9.8648 0 1 tcp 1040 ------- 1 0.0 2.0 62 105
- 9.8648 0 1 tcp 1040 ------- 1 0.0 2.0 62 105
+ 9.904 2 1 ack 40 ------- 1 2.0 0.0 43 106
- 9.904 2 1 ack 40 ------- 1 2.0 0.0 43 106
- 9.932 1 2 tcp 1040 ------- 1 0.0 2.0 45 71
r 9.9656 0 1 tcp 1040 ------- 1 0.0 2.0 62 105
+ 9.9656 1 2 tcp 1040 ------- 1 0.0 2.0 62 105
r 9.992 2 1 ack 40 ------- 1 2.0 0.0 43 106
+ 9.992 1 0 ack 40 ------- 1 2.0 0.0 43 106
- 9.992 1 0 ack 40 ------- 1 2.0 0.0 43 106
r 10.012 1 2 tcp 1040 ------- 1 0.0 2.0 44 69
r 10.0728 1 0 ack 40 ------- 1 2.0 0.0 43 106
+ 10.0728 0 1 tcp 1040 ------- 1 0.0 2.0 63 107
- 10.0728 0 1 tcp 1040 ------- 1 0.0 2.0 63 107
+ 10.112 2 1 ack 40 ------- 1 2.0 0.0 44 108
- 10.112 2 1 ack 40 ------- 1 2.0 0.0 44 108
- 10.14 1 2 tcp 1040 ------- 1 0.0 2.0 46 73
r 10.1736 0 1 tcp 1040 ------- 1 0.0 2.0 63 107
+ 10.1736 1 2 tcp 1040 ------- 1 0.0 2.0 63 107
r 10.2 2 1 ack 40 ------- 1 2.0 0.0 44 108
+ 10.2 1 0 ack 40 ------- 1 2.0 0.0 44 108
- 10.2 1 0 ack 40 ------- 1 2.0 0.0 44 108
r 10.22 1 2 tcp 1040 ------- 1 0.0 2.0 45 71
r 10.2808 1 0 ack 40 ------- 1 2.0 0.0 44 108
+ 10.2808 0 1 tcp 1040 ------- 1 0.0 2.0 64 109
- 10.2808 0 1 tcp 1040 ------- 1 0.0 2.0 64 109
+ 10.32 2 1 ack 40 ------- 1 2.0 0.0 45 110
- 10.32 2 1 ack 40 ------- 1 2.0 0.0 45 110
- 10.348 1 2 tcp 1040 ------- 1 0.0 2.0 47 75
r 10.3816 0 1 tcp 1040 ------- 1 0.0 2.0 64 109
+ 10.3816 1 2 tcp 1040 ------- 1 0.0 2.0 64 109
r 10.408 2 1 ack 40 ------- 1 2.0 0.0 45 110
+ 10.408 1 0 ack 40 ------- 1 2.0 0.0 45 110
- 10.408 1 0 ack 40 ------- 1 2.0 0.0 45 110
r 10.428 1 2 tcp 1040 ------- 1 0.0 2.0 46 73
r 10.4888 1 0 ack 40 ------- 1 2.0 0.0 45 110
+ 10.4888 0 1 tcp 1040 ------- 1 0.0 2.0 65 111
- 10.4888 0 1 tcp 1040 ------- 1 0.0 2.0 65 111
+ 10.528 2 1 ack 40 ------- 1 2.0 0.0 46 112
- 10.528 2 1 ack 40 ------- 1 2.0 0.0 46 112
- 10.556 1 2 tcp 1040 ------- 1 0.0 2.0 48 77
r 10.5896 0 1 tcp 1040 ------- 1 0.0 2.0 65 111
+ 10.5896 1 2 tcp 1040 ------- 1 0.0 2.0 65 111
r 10.616 2 1 ack 40 ------- 1 2.0 0.0 46 112
+ 10.616 1 0 ack 40 ------- 1 2.0 0.0 46 112
- 10.616 1 0 ack 40 ------- 1 2.0 0.0 46 112
r 10.636 1 2 tcp 1040 ------- 1 0.0 2.0 47 75
r 10.6968 1 0 ack 40 ------- 1 2.0 0.0 46 112
+ 10.6968 0 1 tcp 1040 ------- 1 0.0 2.0 66 113
- 10.6968 0 1 tcp 1040 ------- 1 0.0 2.0 66 113
+ 10.736 2 1 ack 40 ------- 1 2.0 0.0 47 114
- 10.736 2 1 ack 40 ------- 1 2.0 0.0 47 114
- 10.764 1 2 tcp 1040 ------- 1 0.0 2.0 49 79
r 10.7976 0 1 tcp 1040 ------- 1 0.0 2.0 66 113
+ 10.7976 1 2 tcp 1040 ------- 1 0.0 2.0 66 113
r 10.824 2 1 ack 40 ------- 1 2.0 0.0 47 114
+ 10.824 1 0 ack 40 ------- 1 2.0 0.0 47 114
- 10.824 1 0 ack 40 ------- 1 2.0 0.0 47 114
r 10.844 1 2 tcp 1040 ------- 1 0.0 2.0 48 77
r 10.9048 1 0 ack 40 ------- 1 2.0 0.0 47 114
+ 10.9048 0 1 tcp 1040 ------- 1 0.0 2.0 67 115
- 10.9048 0 1 tcp 1040 ------- 1 0.0 2.0 67 115
+ 10.944 2 1 ack 40 ------- 1 2.0 0.0 48 116
- 10.944 2 1 ack 40 ------- 1 2.0 0.0 48 116
- 10.972 1 2 tcp 1040 ------- 1 0.0 2.0 50 81
r 11.0056 0 1 tcp 1040 ------- 1 0.0 2.0 67 115
+ 11.0056 1 2 tcp 1040 ------- 1 0.0 2.0 67 115
r 11.032 2 1 ack 40 ------- 1 2.0 0.0 48 116
+ 11.032 1 0 ack 40 ------- 1 2.0 0.0 48 116
- 11.032 1 0 ack 40 ------- 1 2.0 0.0 48 116
r 11.052 1 2 tcp 1040 ------- 1 0.0 2.0 49 79
r 11.1128 1 0 ack 40 ------- 1 2.0 0.0 48 116
+ 11.1128 0 1 tcp 1040 ------- 1 0.0 2.0 68 117
- 11.1128 0 1 tcp 1040 ------- 1 0.0 2.0 68 117
+ 11.152 2 1 ack 40 ------- 1 2.0 0.0 49 118
- 11.152 2 1 ack 40 ------- 1 2.0 0.0 49 118
- 11.18 1 2 tcp 1040 ------- 1 0.0 2.0 51 83
r 11.2136 0 1 tcp 1040 ------- 1 0.0 2.0 68 117
+ 11.2136 1 2 tcp 1040 ------- 1 0.0 2.0 68 117
r 11.24 2 1 ack 40 ------- 1 2.0 0.0 49 118