V -t * -v 1.0a5 -a 0
A -t * -n 1 -p 0 -o 0x7fffffff -c 30 -a 1
A -t * -h 1 -m 1073741823 -s 0
c -t * -i 1 -n Blue
c -t * -i 2 -n Red
n -t * -a 0 -s 0 -S UP -v circle -c black -i black
n -t * -a 1 -s 1 -S UP -v circle -c black -i black
n -t * -a 2 -s 2 -S UP -v circle -c black -i black
l -t * -s 0 -d 1 -S UP -r 10000000 -D 0.080000000000000002 -c black
l -t * -s 1 -d 2 -S UP -r 400000 -D 0.080000000000000002 -c black
+ -t 0.1 -s 0 -d 1 -p sctp -e 56 -c 1 -i 2 -a 1 -x {0.0 2.0 -1 ------- null}
- -t 0.1 -s 0 -d 1 -p sctp -e 56 -c 1 -i 2 -a 1 -x {0.0 2.0 -1 ------- null}
h -t 0.1 -s 0 -d 1 -p sctp -e 56 -c 1 -i 2 -a 1 -x {0.0 2.0 -1 ------- null}
r -t 0.1800448 -s 0 -d 1 -p sctp -e 56 -c 1 -i 2 -a 1 -x {0.0 2.0 -1 ------- null}
+ -t 0.1800448 -s 1 -d 2 -p sctp -e 56 -c 1 -i 2 -a 1 -x {0.0 2.0 -1 ------- null}
- -t 0.1800448 -s 1 -d 2 -p sctp -e 56 -c 1 -i 2 -a 1 -x {0.0 2.0 -1 ------- null}
h -t 0.1800448 -s 1 -d 2 -p sctp -e 56 -c 1 -i 2 -a 1 -x {0.0 2.0 -1 ------- null}
r -t 0.2611648 -s 1 -d 2 -p sctp -e 56 -c 1 -i 2 -a 1 -x {0.0 2.0 -1 ------- null}
+ -t 0.2611648 -s 2 -d 1 -p sctp -e 56 -c 0 -i 3 -a 0 -x {2.0 0.0 -1 ------- null}
- -t 0.2611648 -s 2 -d 1 -p sctp -e 56 -c 0 -i 3 -a 0 -x {2.0 0.0 -1 ------- null}
h -t 0.2611648 -s 2 -d 1 -p sctp -e 56 -c 0 -i 3 -a 0 -x {2.0 0.0 -1 ------- null}
r -t 0.3422848 -s 2 -d 1 -p sctp -e 56 -c 0 -i 3 -a 0 -x {2.0 0.0 -1 ------- null}
+ -t 0.3422848 -s 1 -d 0 -p sctp -e 56 -c 0 -i 3 -a 0 -x {2.0 0.0 -1 ------- null}
- -t 0.3422848 -s 1 -d 0 -p sctp -e 56 -c 0 -i 3 -a 0 -x {2.0 0.0 -1 ------- null}
h -t 0.3422848 -s 1 -d 0 -p sctp -e 56 -c 0 -i 3 -a 0 -x {2.0 0.0 -1 ------- null}
r -t 0.4223296 -s 1 -d 0 -p sctp -e 56 -c 0 -i 3 -a 0 -x {2.0 0.0 -1 ------- null}
+ -t 0.4223296 -s 0 -d 1 -p sctp -e 36 -c 1 -i 4 -a 1 -x {0.0 2.0 -1 ------- null}
- -t 0.4223296 -s 0 -d 1 -p sctp -e 36 -c 1 -i 4 -a 1 -x {0.0 2.0 -1 ------- null}
h -t 0.4223296 -s 0 -d 1 -p sctp -e 36 -c 1 -i 4 -a 1 -x {0.0 2.0 -1 ------- null}
r -t 0.5023584 -s 0 -d 1 -p sctp -e 36 -c 1 -i 4 -a 1 -x {0.0 2.0 -1 ------- null}
+ -t 0.5023584 -s 1 -d 2 -p sctp -e 36 -c 1 -i 4 -a 1 -x {0.0 2.0 -1 ------- null}
- -t 0.5023584 -s 1 -d 2 -p sctp -e 36 -c 1 -i 4 -a 1 -x {0.0 2.0 -1 ------- null}
h -t 0.5023584 -s 1 -d 2 -p sctp -e 36 -c 1 -i 4 -a 1 -x {0.0 2.0 -1 ------- null}
r -t 0.5830784 -s 1 -d 2 -p sctp -e 36 -c 1 -i 4 -a 1 -x {0.0 2.0 -1 ------- null}
+ -t 0.5830784 -s 2 -d 1 -p sctp -e 36 -c 0 -i 5 -a 0 -x {2.0 0.0 -1 ------- null}
- -t 0.5830784 -s 2 -d 1 -p sctp -e 36 -c 0 -i 5 -a 0 -x {2.0 0.0 -1 ------- null}
h -t 0.5830784 -s 2 -d 1 -p sctp -e 36 -c 0 -i 5 -a 0 -x {2.0 0.0 -1 ------- null}
r -t 0.6637984 -s 2 -d 1 -p sctp -e 36 -c 0 -i 5 -a 0 -x {2.0 0.0 -1 ------- null}
+ -t 0.6637984 -s 1 -d 0 -p sctp -e 36 -c 0 -i 5 -a 0 -x {2.0 0.0 -1 ------- null}
- -t 0.6637984 -s 1 -d 0 -p sctp -e 36 -c 0 -i 5 -a 0 -x {2.0 0.0 -1 ------- null}
h -t 0.6637984 -s 1 -d 0 -p sctp -e 36 -c 0 -i 5 -a 0 -x {2.0 0.0 -1 ------- null}
r -t 0.7438272 -s 1 -d 0 -p sctp -e 36 -c 0 -i 5 -a 0 -x {2.0 0.0 -1 ------- null}
+ -t 0.7438272 -s 0 -d 1 -p sctp -e 56 -c 1 -i 6 -a 1 -x {0.0 2.0 -1 ------- null}
- -t 0.7438272 -s 0 -d 1 -p sctp -e 56 -c 1 -i 6 -a 1 -x {0.0 2.0 -1 ------- null}
h -t 0.7438272 -s 0 -d 1 -p sctp -e 56 -c 1 -i 6 -a 1 -x {0.0 2.0 -1 ------- null}
r -t 0.823872 -s 0 -d 1 -p sctp -e 56 -c 1 -i 6 -a 1 -x {0.0 2.0 -1 ------- null}
+ -t 0.823872 -s 1 -d 2 -p sctp -e 56 -c 1 -i 6 -a 1 -x {0.0 2.0 -1 ------- null}
- -t 0.823872 -s 1 -d 2 -p sctp -e 56 -c 1 -i 6 -a 1 -x {0.0 2.0 -1 ------- null}
h -t 0.823872 -s 1 -d 2 -p sctp -e 56 -c 1 -i 6 -a 1 -x {0.0 2.0 -1 ------- null}
r -t 0.904992 -s 1 -d 2 -p sctp -e 56 -c 1 -i 6 -a 1 -x {0.0 2.0 -1 ------- null}
+ -t 0.904992 -s 2 -d 1 -p sctp -e 56 -c 0 -i 7 -a 0 -x {2.0 0.0 -1 ------- null}
- -t 0.904992 -s 2 -d 1 -p sctp -e 56 -c 0 -i 7 -a 0 -x {2.0 0.0 -1 ------- null}
h -t 0.904992 -s 2 -d 1 -p sctp -e 56 -c 0 -i 7 -a 0 -x {2.0 0.0 -1 ------- null}
r -t 0.986112 -s 2 -d 1 -p sctp -e 56 -c 0 -i 7 -a 0 -x {2.0 0.0 -1 ------- null}
+ -t 0.986112 -s 1 -d 0 -p sctp -e 56 -c 0 -i 7 -a 0 -x {2.0 0.0 -1 ------- null}
- -t 0.986112 -s 1 -d 0 -p sctp -e 56 -c 0 -i 7 -a 0 -x {2.0 0.0 -1 ------- null}
h -t 0.986112 -s 1 -d 0 -p sctp -e 56 -c 0 -i 7 -a 0 -x {2.0 0.0 -1 ------- null}
r -t 1.0661568 -s 1 -d 0 -p sctp -e 56 -c 0 -i 7 -a 0 -x {2.0 0.0 -1 ------- null}
+ -t 1.0661568 -s 0 -d 1 -p sctp -e 1500 -c 1 -i 8 -a 1 -x {0.0 2.0 -1 ------- null}
- -t 1.0661568 -s 0 -d 1 -p sctp -e 1500 -c 1 -i 8 -a 1 -x {0.0 2.0 -1 ------- null}
h -t 1.0661568 -s 0 -d 1 -p sctp -e 1500 -c 1 -i 8 -a 1 -x {0.0 2.0 -1 ------- null}
+ -t 1.0661568 -s 0 -d 1 -p sctp -e 1500 -c 1 -i 9 -a 1 -x {0.0 2.0 -1 ------- null}
+ -t 1.0661568 -s 0 -d 1 -p sctp -e 1500 -c 1 -i 10 -a 1 -x {0.0 2.0 -1 ------- null}
- -t 1.0673568 -s 0 -d 1 -p sctp -e 1500 -c 1 -i 9 -a 1 -x {0.0 2.0 -1 ------- null}
h -t 1.0673568 -s 0 -d 1 -p sctp -e 1500 -c 1 -i 9 -a 1 -x {0.0 2.0 -1 ------- null}
- -t 1.0685568 -s 0 -d 1 -p sctp -e 1500 -c 1 -i 10 -a 1 -x {0.0 2.0 -1 ------- null}
h -t 1.0685568 -s 0 -d 1 -p sctp -e 1500 -c 1 -i 10 -a 1 -x {0.0 2.0 -1 ------- null}
r -t 1.1473568 -s 0 -d 1 -p sctp -e 1500 -c 1 -i 8 -a 1 -x {0.0 2.0 -1 ------- null}
+ -t 1.1473568 -s 1 -d 2 -p sctp -e 1500 -c 1 -i 8 -a 1 -x {0.0 2.0 -1 ------- null}
- -t 1.1473568 -s 1 -d 2 -p sctp -e 1500 -c 1 -i 8 -a 1 -x {0.0 2.0 -1 ------- null}
h -t 1.1473568 -s 1 -d 2 -p sctp -e 1500 -c 1 -i 8 -a 1 -x {0.0 2.0 -1 ------- null}
r -t 1.1485568 -s 0 -d 1 -p sctp -e 1500 -c 1 -i 9 -a 1 -x {0.0 2.0 -1 ------- null}
+ -t 1.1485568 -s 1 -d 2 -p sctp -e 1500 -c 1 -i 9 -a 1 -x {0.0 2.0 -1 ------- null}
r -t 1.1497568 -s 0 -d 1 -p sctp -e 1500 -c 1 -i 10 -a 1 -x {0.0 2.0 -1 ------- null}
+ -t 1.1497568 -s 1 -d 2 -p sctp -e 1500 -c 1 -i 10 -a 1 -x {0.0 2.0 -1 ------- null}
- -t 1.1773568 -s 1 -d 2 -p sctp -e 1500 -c 1 -i 9 -a 1 -x {0.0 2.0 -1 ------- null}
h -t 1.1773568 -s 1 -d 2 -p sctp -e 1500 -c 1 -i 9 -a 1 -x {0.0 2.0 -1 ------- null}
- -t 1.2073568 -s 1 -d 2 -p sctp -e 1500 -c 1 -i 10 -a 1 -x {0.0 2.0 -1 ------- null}
h -t 1.2073568 -s 1 -d 2 -p sctp -e 1500 -c 1 -i 10 -a 1 -x {0.0 2.0 -1 ------- null}
r -t 1.2573568 -s 1 -d 2 -p sctp -e 1500 -c 1 -i 8 -a 1 -x {0.0 2.0 -1 ------- null}
+ -t 1.2573568 -s 2 -d 1 -p sctp -e 48 -c 0 -i 11 -a 0 -x {2.0 0.0 -1 ------- null}
- -t 1.2573568 -s 2 -d 1 -p sctp -e 48 -c 0 -i 11 -a 0 -x {2.0 0.0 -1 ------- null}
h -t 1.2573568 -s 2 -d 1 -p sctp -e 48 -c 0 -i 11 -a 0 -x {2.0 0.0 -1 ------- null}
r -t 1.2873568 -s 1 -d 2 -p sctp -e 1500 -c 1 -i 9 -a 1 -x {0.0 2.0 -1 ------- null}
r -t 1.3173568 -s 1 -d 2 -p sctp -e 1500 -c 1 -i 10 -a 1 -x {0.0 2.0 -1 ------- null}
+ -t 1.3173568 -s 2 -d 1 -p sctp -e 48 -c 0 -i 12 -a 0 -x {2.0 0.0 -1 ------- null}
- -t 1.3173568 -s 2 -d 1 -p sctp -e 48 -c 0 -i 12 -a 0 -x {2.0 0.0 -1 ------- null}
h -t 1.3173568 -s 2 -d 1 -p sctp -e 48 -c 0 -i 12 -a 0 -x {2.0 0.0 -1 ------- null}
r -t 1.3383168 -s 2 -d 1 -p sctp -e 48 -c 0 -i 11 -a 0 -x {2.0 0.0 -1 ------- null}
+ -t 1.3383168 -s 1 -d 0 -p sctp -e 48 -c 0 -i 11 -a 0 -x {2.0 0.0 -1 ------- null}
- -t 1.3383168 -s 1 -d 0 -p sctp -e 48 -c 0 -i 11 -a 0 -x {2.0 0.0 -1 ------- null}
h -t 1.3383168 -s 1 -d 0 -p sctp -e 48 -c 0 -i 11 -a 0 -x {2.0 0.0 -1 ------- null}
r -t 1.3983168 -s 2 -d 1 -p sctp -e 48 -c 0 -i 12 -a 0 -x {2.0 0.0 -1 ------- null}
+ -t 1.3983168 -s 1 -d 0 -p sctp -e 48 -c 0 -i 12 -a 0 -x {2.0 0.0 -1 ------- null}
- -t 1.3983168 -s 1 -d 0 -p sctp -e 48 -c 0 -i 12 -a 0 -x {2.0 0.0 -1 ------- null}
h -t 1.3983168 -s 1 -d 0 -p sctp -e 48 -c 0 -i 12 -a 0 -x {2.0 0.0 -1 ------- null}
r -t 1.4183552 -s 1 -d 0 -p sctp -e 48 -c 0 -i 11 -a 0 -x {2.0 0.0 -1 ------- null}
+ -t 1.4183552 -s 0 -d 1 -p sctp -e 1500 -c 1 -i 13 -a 1 -x {0.0 2.0 -1 ------- null}
- -t 1.4183552 -s 0 -d 1 -p sctp -e 1500 -c 1 -i 13 -a 1 -x {0.0 2.0 -1 ------- null}
h -t 1.4183552 -s 0 -d 1 -p sctp -e 1500 -c 1 -i 13 -a 1 -x {0.0 2.0 -1 ------- null}
+ -t 1.4183552 -s 0 -d 1 -p sctp -e 1500 -c 1 -i 14 -a 1 -x {0.0 2.0 -1 ------- null}
- -t 1.4195552 -s 0 -d 1 -p sctp -e 1500 -c 1 -i 14 -a 1 -x {0.0 2.0 -1 ------- null}
h -t 1.4195552 -s 0 -d 1 -p sctp -e 1500 -c 1 -i 14 -a 1 -x {0.0 2.0 -1 ------- null}
r -t 1.4783552 -s 1 -d 0 -p sctp -e 48 -c 0 -i 12 -a 0 -x {2.0 0.0 -1 ------- null}
+ -t 1.4783552 -s 0 -d 1 -p sctp -e 1500 -c 1 -i 15 -a 1 -x {0.0 2.0 -1 ------- null}
- -t 1.4783552 -s 0 -d 1 -p sctp -e 1500 -c 1 -i 15 -a 1 -x {0.0 2.0 -1 ------- null}
h -t 1.4783552 -s 0 -d 1 -p sctp -e 1500 -c 1 -i 15 -a 1 -x {0.0 2.0 -1 ------- null}
+ -t 1.4783552 -s 0 -d 1 -p sctp -e 1500 -c 1 -i 16 -a 1 -x {0.0 2.0 -1 ------- null}
+ -t 1.4783552 -s 0 -d 1 -p sctp -e 1500 -c 1 -i 17 -a 1 -x {0.0 2.0 -1 ------- null}
- -t 1.4795552 -s 0 -d 1 -p sctp -e 1500 -c 1 -i 16 -a 1 -x {0.0 2.0 -1 ------- null}
h -t 1.4795552 -s 0 -d 1 -p sctp -e 1500 -c 1 -i 16 -a 1 -x {0.0 2.0 -1 ------- null}
- -t 1.4807552 -s 0 -d 1 -p sctp -e 1500 -c 1 -i 17 -a 1 -x {0.0 2.0 -1 ------- null}
h -t 1.4807552 -s 0 -d 1 -p sctp -e 1500 -c 1 -i 17 -a 1 -x {0.0 2.0 -1 ------- null}
r -t 1.4995552 -s 0 -d 1 -p sctp -e 1500 -c 1 -i 13 -a 1 -x {0.0 2.0 -1 ------- null}
+ -t 1.4995552 -s 1 -d 2 -p sctp -e 1500 -c 1 -i 13 -a 1 -x {0.0 2.0 -1 ------- null}
- -t 1.4995552 -s 1 -d 2 -p sctp -e 1500 -c 1 -i 13 -a 1 -x {0.0 2.0 -1 ------- null}
h -t 1.4995552 -s 1 -d 2 -p sctp -e 1500 -c 1 -i 13 -a 1 -x {0.0 2.0 -1 ------- null}
r -t 1.5007552 -s 0 -d 1 -p sctp -e 1500 -c 1 -i 14 -a 1 -x {0.0 2.0 -1 ------- null}
+ -t 1.5007552 -s 1 -d 2 -p sctp -e 1500 -c 1 -i 14 -a 1 -x {0.0 2.0 -1 ------- null}
- -t 1.5295552 -s 1 -d 2 -p sctp -e 1500 -c 1 -i 14 -a 1 -x {0.0 2.0 -1 ------- null}
h -t 1.5295552 -s 1 -d 2 -p sctp -e 1500 -c 1 -i 14 -a 1 -x {0.0 2.0 -1 ------- null}
r -t 1.5595552 -s 0 -d 1 -p sctp -e 1500 -c 1 -i 15 -a 1 -x {0.0 2.0 -1 ------- null}
+ -t 1.5595552 -s 1 -d 2 -p sctp -e 1500 -c 1 -i 15 -a 1 -x {0.0 2.0 -1 ------- null}
- -t 1.5595552 -s 1 -d 2 -p sctp -e 1500 -c 1 -i 15 -a 1 -x {0.0 2.0 -1 ------- null}
h -t 1.5595552 -s 1 -d 2 -p sctp -e 1500 -c 1 -i 15 -a 1 -x {0.0 2.0 -1 ------- null}
r -t 1.5607552 -s 0 -d 1 -p sctp -e 1500 -c 1 -i 16 -a 1 -x {0.0 2.0 -1 ------- null}
+ -t 1.5607552 -s 1 -d 2 -p sctp -e 1500 -c 1 -i 16 -a 1 -x {0.0 2.0 -1 ------- null}
r -t 1.5619552 -s 0 -d 1 -p sctp -e 1500 -c 1 -i 17 -a 1 -x {0.0 2.0 -1 ------- null}
+ -t 1.5619552 -s 1 -d 2 -p sctp -e 1500 -c 1 -i 17 -a 1 -x {0.0 2.0 -1 ------- null}
- -t 1.5895552 -s 1 -d 2 -p sctp -e 1500 -c 1 -i 16 -a 1 -x {0.0 2.0 -1 ------- null}
h -t 1.5895552 -s 1 -d 2 -p sctp -e 1500 -c 1 -i 16 -a 1 -x {0.0 2.0 -1 ------- null}
r -t 1.6095552 -s 1 -d 2 -p sctp -e 1500 -c 1 -i 13 -a 1 -x {0.0 2.0 -1 ------- null}
- -t 1.6195552 -s 1 -d 2 -p sctp -e 1500 -c 1 -i 17 -a 1 -x {0.0 2.0 -1 ------- null}
h -t 1.6195552 -s 1 -d 2 -p sctp -e 1500 -c 1 -i 17 -a 1 -x {0.0 2.0 -1 ------- null}
r -t 1.6395552 -s 1 -d 2 -p sctp -e 1500 -c 1 -i 14 -a 1 -x {0.0 2.0 -1 ------- null}
+ -t 1.6395552 -s 2 -d 1 -p sctp -e 48 -c 0 -i 18 -a 0 -x {2.0 0.0 -1 ------- null}
- -t 1.6395552 -s 2 -d 1 -p sctp -e 48 -c 0 -i 18 -a 0 -x {2.0 0.0 -1 ------- null}
h -t 1.6395552 -s 2 -d 1 -p sctp -e 48 -c 0 -i 18 -a 0 -x {2.0 0.0 -1 ------- null}
r -t 1.6695552 -s 1 -d 2 -p sctp -e 1500 -c 1 -i 15 -a 1 -x {0.0 2.0 -1 ------- null}
r -t 1.6995552 -s 1 -d 2 -p sctp -e 1500 -c 1 -i 16 -a 1 -x {0.0 2.0 -1 ------- null}
+ -t 1.6995552 -s 2 -d 1 -p sctp -e 48 -c 0 -i 19 -a 0 -x {2.0 0.0 -1 ------- null}
- -t 1.6995552 -s 2 -d 1 -p sctp -e 48 -c 0 -i 19 -a 0 -x {2.0 0.0 -1 ------- null}
h -t 1.6995552 -s 2 -d 1 -p sctp -e 48 -c 0 -i 19 -a 0 -x {2.0 0.0 -1 ------- null}
r -t 1.7205152 -s 2 -d 1 -p sctp -e 48 -c 0 -i 18 -a 0 -x {2.0 0.0 -1 ------- null}
+ -t 1.7205152 -s 1 -d 0 -p sctp -e 48 -c 0 -i 18 -a 0 -x {2.0 0.0 -1 ------- null}
- -t 1.7205152 -s 1 -d 0 -p sctp -e 48 -c 0 -i 18 -a 0 -x {2.0 0.0 -1 ------- null}
h -t 1.7205152 -s 1 -d 0 -p sctp -e 48 -c 0 -i 18 -a 0 -x {2.0 0.0 -1 ------- null}
r -t 1.7295552 -s 1 -d 2 -p sctp -e 1500 -c 1 -i 17 -a 1 -x {0.0 2.0 -1 ------- null}
r -t 1.7805152 -s 2 -d 1 -p sctp -e 48 -c 0 -i 19 -a 0 -x {2.0 0.0 -1 ------- null}
+ -t 1.7805152 -s 1 -d 0 -p sctp -e 48 -c 0 -i 19 -a 0 -x {2.0 0.0 -1 ------- null}
- -t 1.7805152 -s 1 -d 0 -p sctp -e 48 -c 0 -i 19 -a 0 -x {2.0 0.0 -1 ------- null}
h -t 1.7805152 -s 1 -d 0 -p sctp -e 48 -c 0 -i 19 -a 0 -x {2.0 0.0 -1 ------- null}
r -t 1.8005536 -s 1 -d 0 -p sctp -e 48 -c 0 -i 18 -a 0 -x {2.0 0.0 -1 ------- null}
+ -t 1.8005536 -s 0 -d 1 -p sctp -e 1500 -c 1 -i 20 -a 1 -x {0.0 2.0 -1 ------- null}
- -t 1.8005536 -s 0 -d 1 -p sctp -e 1500 -c 1 -i 20 -a 1 -x {0.0 2.0 -1 ------- null}
h -t 1.8005536 -s 0 -d 1 -p sctp -e 1500 -c 1 -i 20 -a 1 -x {0.0 2.0 -1 ------- null}
+ -t 1.8005536 -s 0 -d 1 -p sctp -e 1500 -c 1 -i 21 -a 1 -x {0.0 2.0 -1 ------- null}
+ -t 1.8005536 -s 0 -d 1 -p sctp -e 1500 -c 1 -i 22 -a 1 -x {0.0 2.0 -1 ------- null}
- -t 1.8017536 -s 0 -d 1 -p sctp -e 1500 -c 1 -i 21 -a 1 -x {0.0 2.0 -1 ------- null}
h -t 1.8017536 -s 0 -d 1 -p sctp -e 1500 -c 1 -i 21 -a 1 -x {0.0 2.0 -1 ------- null}
- -t 1.8029536 -s 0 -d 1 -p sctp -e 1500 -c 1 -i 22 -a 1 -x {0.0 2.0 -1 ------- null}
h -t 1.8029536 -s 0 -d 1 -p sctp -e 1500 -c 1 -i 22 -a 1 -x {0.0 2.0 -1 ------- null}
r -t 1.8605536 -s 1 -d 0 -p sctp -e 48 -c 0 -i 19 -a 0 -x {2.0 0.0 -1 ------- null}
+ -t 1.8605536 -s 0 -d 1 -p sctp -e 1500 -c 1 -i 23 -a 1 -x {0.0 2.0 -1 ------- null}
- -t 1.8605536 -s 0 -d 1 -p sctp -e 1500 -c 1 -i 23 -a 1 -x {0.0 2.0 -1 ------- null}
h -t 1.8605536 -s 0 -d 1 -p sctp -e 1500 -c 1 -i 23 -a 1 -x {0.0 2.0 -1 ------- null}
+ -t 1.8605536 -s 0 -d 1 -p sctp -e 1500 -c 1 -i 24 -a 1 -x {0.0 2.0 -1 ------- null}
+ -t 1.8605536 -s 0 -d 1 -p sctp -e 1500 -c 1 -i 25 -a 1 -x {0.0 2.0 -1 ------- null}
- -t 1.8617536 -s 0 -d 1 -p sctp -e 1500 -c 1 -i 24 -a 1 -x {0.0 2.0 -1 ------- null}
h -t 1.8617536 -s 0 -d 1 -p sctp -e 1500 -c 1 -i 24 -a 1 -x {0.0 2.0 -1 ------- null}
- -t 1.8629536 -s 0 -d 1 -p sctp -e 1500 -c 1 -i 25 -a 1 -x {0.0 2.0 -1 ------- null}
h -t 1.8629536 -s 0 -d 1 -p sctp -e 1500 -c 1 -i 25 -a 1 -x {0.0 2.0 -1 ------- null}
r -t 1.8817536 -s 0 -d 1 -p sctp -e 1500 -c 1 -i 20 -a 1 -x {0.0 2.0 -1 ------- null}
+ -t 1.8817536 -s 1 -d 2 -p sctp -e 1500 -c 1 -i 20 -a 1 -x {0.0 2.0 -1 ------- null}
- -t 1.8817536 -s 1 -d 2 -p sctp -e 1500 -c 1 -i 20 -a 1 -x {0.0 2.0 -1 ------- null}
h -t 1.8817536 -s 1 -d 2 -p sctp -e 1500 -c 1 -i 20 -a 1 -x {0.0 2.0 -1 ------- null}
r -t 1.8829536 -s 0 -d 1 -p sctp -e 1500 -c 1 -i 21 -a 1 -x {0.0 2.0 -1 ------- null}
+ -t 1.8829536 -s 1 -d 2 -p sctp -e 1500 -c 1 -i 21 -a 1 -x {0.0 2.0 -1 ------- null}
r -t 1.8841536 -s 0 -d 1 -p sctp -e 1500 -c 1 -i 22 -a 1 -x {0.0 2.0 -1 ------- null}
+ -t 1.8841536 -s 1 -d 2 -p sctp -e 1500 -c 1 -i 22 -a 1 -x {0.0 2.0 -1 ------- null}
- -t 1.9117536 -s 1 -d 2 -p sctp -e 1500 -c 1 -i 21 -a 1 -x {0.0 2.0 -1 ------- null}
h -t 1.9117536 -s 1 -d 2 -p sctp -e 1500 -c 1 -i 21 -a 1 -x {0.0 2.0 -1 ------- null}
+ -t 1.9295552 -s 2 -d 1 -p sctp -e 48 -c 0 -i 26 -a 0 -x {2.0 0.0 -1 ------- null}
- -t 1.9295552 -s 2 -d 1 -p sctp -e 48 -c 0 -i 26 -a 0 -x {2.0 0.0 -1 ------- null}
h -t 1.9295552 -s 2 -d 1 -p sctp -e 48 -c 0 -i 26 -a 0 -x {2.0 0.0 -1 ------- null}
r -t 1.9417536 -s 0 -d 1 -p sctp -e 1500 -c 1 -i 23 -a 1 -x {0.0 2.0 -1 ------- null}
+ -t 1.9417536 -s 1 -d 2 -p sctp -e 1500 -c 1 -i 23 -a 1 -x {0.0 2.0 -1 ------- null}
- -t 1.9417536 -s 1 -d 2 -p sctp -e 1500 -c 1 -i 22 -a 1 -x {0.0 2.0 -1 ------- null}
h -t 1.9417536 -s 1 -d 2 -p sctp -e 1500 -c 1 -i 22 -a 1 -x {0.0 2.0 -1 ------- null}
r -t 1.9429536 -s 0 -d 1 -p sctp -e 1500 -c 1 -i 24 -a 1 -x {0.0 2.0 -1 ------- null}
+ -t 1.9429536 -s 1 -d 2 -p sctp -e 1500 -c 1 -i 24 -a 1 -x {0.0 2.0 -1 ------- null}
r -t 1.9441536 -s 0 -d 1 -p sctp -e 1500 -c 1 -i 25 -a 1 -x {0.0 2.0 -1 ------- null}
+ -t 1.9441536 -s 1 -d 2 -p sctp -e 1500 -c 1 -i 25 -a 1 -x {0.0 2.0 -1 ------- null}
- -t 1.9717536 -s 1 -d 2 -p sctp -e 1500 -c 1 -i 23 -a 1 -x {0.0 2.0 -1 ------- null}
h -t 1.9717536 -s 1 -d 2 -p sctp -e 1500 -c 1 -i 23 -a 1 -x {0.0 2.0 -1 ------- null}
r -t 1.9917536 -s 1 -d 2 -p sctp -e 1500 -c 1 -i 20 -a 1 -x {0.0 2.0 -1 ------- null}
- -t 2.0017536 -s 1 -d 2 -p sctp -e 1500 -c 1 -i 24 -a 1 -x {0.0 2.0 -1 ------- null}
h -t 2.0017536 -s 1 -d 2 -p sctp -e 1500 -c 1 -i 24 -a 1 -x {0.0 2.0 -1 ------- null}
r -t 2.0105152 -s 2 -d 1 -p sctp -e 48 -c 0 -i 26 -a 0 -x {2.0 0.0 -1 ------- null}
+ -t 2.0105152 -s 1 -d 0 -p sctp -e 48 -c 0 -i 26 -a 0 -x {2.0 0.0 -1 ------- null}
- -t 2.0105152 -s 1 -d 0 -p sctp -e 48 -c 0 -i 26 -a 0 -x {2.0 0.0 -1 ------- null}
h -t 2.0105152 -s 1 -d 0 -p sctp -e 48 -c 0 -i 26 -a 0 -x {2.0 0.0 -1 ------- null}
r -t 2.0217536 -s 1 -d 2 -p sctp -e 1500 -c 1 -i 21 -a 1 -x {0.0 2.0 -1 ------- null}
+ -t 2.0217536 -s 2 -d 1 -p sctp -e 48 -c 0 -i 27 -a 0 -x {2.0 0.0 -1 ------- null}
- -t 2.0217536 -s 2 -d 1 -p sctp -e 48 -c 0 -i 27 -a 0 -x {2.0 0.0 -1 ------- null}
h -t 2.0217536 -s 2 -d 1 -p sctp -e 48 -c 0 -i 27 -a 0 -x {2.0 0.0 -1 ------- null}
- -t 2.0317536 -s 1 -d 2 -p sctp -e 1500 -c 1 -i 25 -a 1 -x {0.0 2.0 -1 ------- null}
h -t 2.0317536 -s 1 -d 2 -p sctp -e 1500 -c 1 -i 25 -a 1 -x {0.0 2.0 -1 ------- null}
r -t 2.0517536 -s 1 -d 2 -p sctp -e 1500 -c 1 -i 22 -a 1 -x {0.0 2.0 -1 ------- null}
r -t 2.0817536 -s 1 -d 2 -p sctp -e 1500 -c 1 -i 23 -a 1 -x {0.0 2.0 -1 ------- null}
+ -t 2.0817536 -s 2 -d 1 -p sctp -e 48 -c 0 -i 28 -a 0 -x {2.0 0.0 -1 ------- null}
- -t 2.0817536 -s 2 -d 1 -p sctp -e 48 -c 0 -i 28 -a 0 -x {2.0 0.0 -1 ------- null}
h -t 2.0817536 -s 2 -d 1 -p sctp -e 48 -c 0 -i 28 -a 0 -x {2.0 0.0 -1 ------- null}
r -t 2.0905536 -s 1 -d 0 -p sctp -e 48 -c 0 -i 26 -a 0 -x {2.0 0.0 -1 ------- null}
+ -t 2.0905536 -s 0 -d 1 -p sctp -e 1500 -c 1 -i 29 -a 1 -x {0.0 2.0 -1 ------- null}
- -t 2.0905536 -s 0 -d 1 -p sctp -e 1500 -c 1 -i 29 -a 1 -x {0.0 2.0 -1 ------- null}
h -t 2.0905536 -s 0 -d 1 -p sctp -e 1500 -c 1 -i 29 -a 1 -x {0.0 2.0 -1 ------- null}
+ -t 2.0905536 -s 0 -d 1 -p sctp -e 1500 -c 1 -i 30 -a 1 -x {0.0 2.0 -1 ------- null}
- -t 2.0917536 -s 0 -d 1 -p sctp -e 1500 -c 1 -i 30 -a 1 -x {0.0 2.0 -1 ------- null}
h -t 2.0917536 -s 0 -d 1 -p sctp -e 1500 -c 1 -i 30 -a 1 -x {0.0 2.0 -1 ------- null}
r -t 2.1027136 -s 2 -d 1 -p sctp -e 48 -c 0 -i 27 -a 0 -x {2.0 0.0 -1 ------- null}
+ -t 2.1027136 -s 1 -d 0 -p sctp -e 48 -c 0 -i 27 -a 0 -x {2.0 0.0 -1 ------- null}
- -t 2.1027136 -s 1 -d 0 -p sctp -e 48 -c 0 -i 27 -a 0 -x {2.0 0.0 -1 ------- null}
h -t 2.1027136 -s 1 -d 0 -p sctp -e 48 -c 0 -i 27 -a 0 -x {2.0 0.0 -1 ------- null}
r -t 2.1117536 -s 1 -d 2 -p sctp -e 1500 -c 1 -i 24 -a 1 -x {0.0 2.0 -1 ------- null}
r -t 2.1417536 -s 1 -d 2 -p sctp -e 1500 -c 1 -i 25 -a 1 -x {0.0 2.0 -1 ------- null}
+ -t 2.1417536 -s 2 -d 1 -p sctp -e 48 -c 0 -i 31 -a 0 -x {2.0 0.0 -1 ------- null}
- -t 2.1417536 -s 2 -d 1 -p sctp -e 48 -c 0 -i 31 -a 0 -x {2.0 0.0 -1 ------- null}
h -t 2.1417536 -s 2 -d 1 -p sctp -e 48 -c 0 -i 31 -a 0 -x {2.0 0.0 -1 ------- null}
r -t 2.1627136 -s 2 -d 1 -p sctp -e 48 -c 0 -i 28 -a 0 -x {2.0 0.0 -1 ------- null}
+ -t 2.1627136 -s 1 -d 0 -p sctp -e 48 -c 0 -i 28 -a 0 -x {2.0 0.0 -1 ------- null}
- -t 2.1627136 -s 1 -d 0 -p sctp -e 48 -c 0 -i 28 -a 0 -x {2.0 0.0 -1 ------- null}
h -t 2.1627136 -s 1 -d 0 -p sctp -e 48 -c 0 -i 28 -a 0 -x {2.0 0.0 -1 ------- null}
r -t 2.1717536 -s 0 -d 1 -p sctp -e 1500 -c 1 -i 29 -a 1 -x {0.0 2.0 -1 ------- null}
+ -t 2.1717536 -s 1 -d 2 -p sctp -e 1500 -c 1 -i 29 -a 1 -x {0.0 2.0 -1 ------- null}
- -t 2.1717536 -s 1 -d 2 -p sctp -e 1500 -c 1 -i 29 -a 1 -x {0.0 2.0 -1 ------- null}
h -t 2.1717536 -s 1 -d 2 -p sctp -e 1500 -c 1 -i 29 -a 1 -x {0.0 2.0 -1 ------- null}
r -t 2.1729536 -s 0 -d 1 -p sctp -e 1500 -c 1 -i 30 -a 1 -x {0.0 2.0 -1 ------- null}
+ -t 2.1729536 -s 1 -d 2 -p sctp -e 1500 -c 1 -i 30 -a 1 -x {0.0 2.0 -1 ------- null}
r -t 2.182752 -s 1 -d 0 -p sctp -e 48 -c 0 -i 27 -a 0 -x {2.0 0.0 -1 ------- null}
+ -t 2.182752 -s 0 -d 1 -p sctp -e 1500 -c 1 -i 32 -a 1 -x {0.0 2.0 -1 ------- null}
- -t 2.182752 -s 0 -d 1 -p sctp -e 1500 -c 1 -i 32 -a 1 -x {0.0 2.0 -1 ------- null}
h -t 2.182752 -s 0 -d 1 -p sctp -e 1500 -c 1 -i 32 -a 1 -x {0.0 2.0 -1 ------- null}
+ -t 2.182752 -s 0 -d 1 -p sctp -e 1500 -c 1 -i 33 -a 1 -x {0.0 2.0 -1 ------- null}
+ -t 2.182752 -s 0 -d 1 -p sctp -e 1500 -c 1 -i 34 -a 1 -x {0.0 2.0 -1 ------- null}
- -t 2.183952 -s 0 -d 1 -p sctp -e 1500 -c 1 -i 33 -a 1 -x {0.0 2.0 -1 ------- null}
h -t 2.183952 -s 0 -d 1 -p sctp -e 1500 -c 1 -i 33 -a 1 -x {0.0 2.0 -1 ------- null}
- -t 2.185152 -s 0 -d 1 -p sctp -e 1500 -c 1 -i 34 -a 1 -x {0.0 2.0 -1 ------- null}
h -t 2.185152 -s 0 -d 1 -p sctp -e 1500 -c 1 -i 34 -a 1 -x {0.0 2.0 -1 ------- null}
- -t 2.2017536 -s 1 -d 2 -p sctp -e 1500 -c 1 -i 30 -a 1 -x {0.0 2.0 -1 ------- null}
h -t 2.2017536 -s 1 -d 2 -p sctp -e 1500 -c 1 -i 30 -a 1 -x {0.0 2.0 -1 ------- null}
r -t 2.2227136 -s 2 -d 1 -p sctp -e 48 -c 0 -i 31 -a 0 -x {2.0 0.0 -1 ------- null}
+ -t 2.2227136 -s 1 -d 0 -p sctp -e 48 -c 0 -i 31 -a 0 -x {2.0 0.0 -1 ------- null}
- -t 2.2227136 -s 1 -d 0 -p sctp -e 48 -c 0 -i 31 -a 0 -x {2.0 0.0 -1 ------- null}
h -t 2.2227136 -s 1 -d 0 -p sctp -e 48 -c 0 -i 31 -a 0 -x {2.0 0.0 -1 ------- null}
r -t 2.242752 -s 1 -d 0 -p sctp -e 48 -c 0 -i 28 -a 0 -x {2.0 0.0 -1 ------- null}
+ -t 2.242752 -s 0 -d 1 -p sctp -e 1500 -c 1 -i 35 -a 1 -x {0.0 2.0 -1 ------- null}
- -t 2.242752 -s 0 -d 1 -p sctp -e 1500 -c 1 -i 35 -a 1 -x {0.0 2.0 -1 ------- null}
h -t 2.242752 -s 0 -d 1 -p sctp -e 1500 -c 1 -i 35 -a 1 -x {0.0 2.0 -1 ------- null}
+ -t 2.242752 -s 0 -d 1 -p sctp -e 1500 -c 1 -i 36 -a 1 -x {0.0 2.0 -1 ------- null}
+ -t 2.242752 -s 0 -d 1 -p sctp -e 1500 -c 1 -i 37 -a 1 -x {0.0 2.0 -1 ------- null}
- -t 2.243952 -s 0 -d 1 -p sctp -e 1500 -c 1 -i 36 -a 1 -x {0.0 2.0 -1 ------- null}
h -t 2.243952 -s 0 -d 1 -p sctp -e 1500 -c 1 -i 36 -a 1 -x {0.0 2.0 -1 ------- null}
- -t 2.245152 -s 0 -d 1 -p sctp -e 1500 -c 1 -i 37 -a 1 -x {0.0 2.0 -1 ------- null}
h -t 2.245152 -s 0 -d 1 -p sctp -e 1500 -c 1 -i 37 -a 1 -x {0.0 2.0 -1 ------- null}
r -t 2.263952 -s 0 -d 1 -p sctp -e 1500 -c 1 -i 32 -a 1 -x {0.0 2.0 -1 ------- null}
+ -t 2.263952 -s 1 -d 2 -p sctp -e 1500 -c 1 -i 32 -a 1 -x {0.0 2.0 -1 ------- null}
- -t 2.263952 -s 1 -d 2 -p sctp -e 1500 -c 1 -i 32 -a 1 -x {0.0 2.0 -1 ------- null}
h -t 2.263952 -s 1 -d 2 -p sctp -e 1500 -c 1 -i 32 -a 1 -x {0.0 2.0 -1 ------- null}
r -t 2.265152 -s 0 -d 1 -p sctp -e 1500 -c 1 -i 33 -a 1 -x {0.0 2.0 -1 ------- null}
+ -t 2.265152 -s 1 -d 2 -p sctp -e 1500 -c 1 -i 33 -a 1 -x {0.0 2.0 -1 ------- null}
r -t 2.266352 -s 0 -d 1 -p sctp -e 1500 -c 1 -i 34 -a 1 -x {0.0 2.0 -1 ------- null}
+ -t 2.266352 -s 1 -d 2 -p sctp -e 1500 -c 1 -i 34 -a 1 -x {0.0 2.0 -1 ------- null}
r -t 2.2817536 -s 1 -d 2 -p sctp -e 1500 -c 1 -i 29 -a 1 -x {0.0 2.0 -1 ------- null}
- -t 2.293952 -s 1 -d 2 -p sctp -e 1500 -c 1 -i 33 -a 1 -x {0.0 2.0 -1 ------- null}
h -t 2.293952 -s 1 -d 2 -p sctp -e 1500 -c 1 -i 33 -a 1 -x {0.0 2.0 -1 ------- null}
r -t 2.302752 -s 1 -d 0 -p sctp -e 48 -c 0 -i 31 -a 0 -x {2.0 0.0 -1 ------- null}
+ -t 2.302752 -s 0 -d 1 -p sctp -e 1500 -c 1 -i 38 -a 1 -x {0.0 2.0 -1 ------- null}
- -t 2.302752 -s 0 -d 1 -p sctp -e 1500 -c 1 -i 38 -a 1 -x {0.0 2.0 -1 ------- null}
h -t 2.302752 -s 0 -d 1 -p sctp -e 1500 -c 1 -i 38 -a 1 -x {0.0 2.0 -1 ------- null}
+ -t 2.302752 -s 0 -d 1 -p sctp -e 1500 -c 1 -i 39 -a 1 -x {0.0 2.0 -1 ------- null}
+ -t 2.302752 -s 0 -d 1 -p sctp -e 1500 -c 1 -i 40 -a 1 -x {0.0 2.0 -1 ------- null}
- -t 2.303952 -s 0 -d 1 -p sctp -e 1500 -c 1 -i 39 -a 1 -x {0.0 2.0 -1 ------- null}
h -t 2.303952 -s 0 -d 1 -p sctp -e 1500 -c 1 -i 39 -a 1 -x {0.0 2.0 -1 ------- null}
- -t 2.305152 -s 0 -d 1 -p sctp -e 1500 -c 1 -i 40 -a 1 -x {0.0 2.0 -1 ------- null}
h -t 2.305152 -s 0 -d 1 -p sctp -e 1500 -c 1 -i 40 -a 1 -x {0.0 2.0 -1 ------- null}
r -t 2.3117536 -s 1 -d 2 -p sctp -e 1500 -c 1 -i 30 -a 1 -x {0.0 2.0 -1 ------- null}
+ -t 2.3117536 -s 2 -d 1 -p sctp -e 48 -c 0 -i 41 -a 0 -x {2.0 0.0 -1 ------- null}
- -t 2.3117536 -s 2 -d 1 -p sctp -e 48 -c 0 -i 41 -a 0 -x {2.0 0.0 -1 ------- null}
h -t 2.3117536 -s 2 -d 1 -p sctp -e 48 -c 0 -i 41 -a 0 -x {2.0 0.0 -1 ------- null}
- -t 2.323952 -s 1 -d 2 -p sctp -e 1500 -c 1 -i 34 -a 1 -x {0.0 2.0 -1 ------- null}
h -t 2.323952 -s 1 -d 2 -p sctp -e 1500 -c 1 -i 34 -a 1 -x {0.0 2.0 -1 ------- null}
r -t 2.323952 -s 0 -d 1 -p sctp -e 1500 -c 1 -i 35 -a 1 -x {0.0 2.0 -1 ------- null}
+ -t 2.323952 -s 1 -d 2 -p sctp -e 1500 -c 1 -i 35 -a 1 -x {0.0 2.0 -1 ------- null}
r -t 2.325152 -s 0 -d 1 -p sctp -e 1500 -c 1 -i 36 -a 1 -x {0.0 2.0 -1 ------- null}
+ -t 2.325152 -s 1 -d 2 -p sctp -e 1500 -c 1 -i 36 -a 1 -x {0.0 2.0 -1 ------- null}
r -t 2.326352 -s 0 -d 1 -p sctp -e 1500 -c 1 -i 37 -a 1 -x {0.0 2.0 -1 ------- null}
+ -t 2.326352 -s 1 -d 2 -p sctp -e 1500 -c 1 -i 37 -a 1 -x {0.0 2.0 -1 ------- null}
- -t 2.353952 -s 1 -d 2 -p sctp -e 1500 -c 1 -i 35 -a 1 -x {0.0 2.0 -1 ------- null}
h -t 2.353952 -s 1 -d 2 -p sctp -e 1500 -c 1 -i 35 -a 1 -x {0.0 2.0 -1 ------- null}
r -t 2.373952 -s 1 -d 2 -p sctp -e 1500 -c 1 -i 32 -a 1 -x {0.0 2.0 -1 ------- null}
- -t 2.383952 -s 1 -d 2 -p sctp -e 1500 -c 1 -i 36 -a 1 -x {0.0 2.0 -1 ------- null}
h -t 2.383952 -s 1 -d 2 -p sctp -e 1500 -c 1 -i 36 -a 1 -x {0.0 2.0 -1 ------- null}
r -t 2.383952 -s 0 -d 1 -p sctp -e 1500 -c 1 -i 38 -a 1 -x {0.0 2.0 -1 ------- null}
+ -t 2.383952 -s 1 -d 2 -p sctp -e 1500 -c 1 -i 38 -a 1 -x {0.0 2.0 -1 ------- null}
r -t 2.385152 -s 0 -d 1 -p sctp -e 1500 -c 1 -i 39 -a 1 -x {0.0 2.0 -1 ------- null}
+ -t 2.385152 -s 1 -d 2 -p sctp -e 1500 -c 1 -i 39 -a 1 -x {0.0 2.0 -1 ------- null}
r -t 2.386352 -s 0 -d 1 -p sctp -e 1500 -c 1 -i 40 -a 1 -x {0.0 2.0 -1 ------- null}
+ -t 2.386352 -s 1 -d 2 -p sctp -e 1500 -c 1 -i 40 -a 1 -x {0.0 2.0 -1 ------- null}
r -t 2.3927136 -s 2 -d 1 -p sctp -e 48 -c 0 -i 41 -a 0 -x {2.0 0.0 -1 ------- null}
+ -t 2.3927136 -s 1 -d 0 -p sctp -e 48 -c 0 -i 41 -a 0 -x {2.0 0.0 -1 ------- null}
- -t 2.3927136 -s 1 -d 0 -p sctp -e 48 -c 0 -i 41 -a 0 -x {2.0 0.0 -1 ------- null}
h -t 2.3927136 -s 1 -d 0 -p sctp -e 48 -c 0 -i 41 -a 0 -x {2.0 0.0 -1 ------- null}
r -t 2.403952 -s 1 -d 2 -p sctp -e 1500 -c 1 -i 33 -a 1 -x {0.0 2.0 -1 ------- null}
+ -t 2.403952 -s 2 -d 1 -p sctp -e 48 -c 0 -i 42 -a 0 -x {2.0 0.0 -1 ------- null}
- -t 2.403952 -s 2 -d 1 -p sctp -e 48 -c 0 -i 42 -a 0 -x {2.0 0.0 -1 ------- null}
h -t 2.403952 -s 2 -d 1 -p sctp -e 48 -c 0 -i 42 -a 0 -x {2.0 0.0 -1 ------- null}
- -t 2.413952 -s 1 -d 2 -p sctp -e 1500 -c 1 -i 37 -a 1 -x {0.0 2.0 -1 ------- null}
h -t 2.413952 -s 1 -d 2 -p sctp -e 1500 -c 1 -i 37 -a 1 -x {0.0 2.0 -1 ------- null}
r -t 2.433952 -s 1 -d 2 -p sctp -e 1500 -c 1 -i 34 -a 1 -x {0.0 2.0 -1 ------- null}
- -t 2.443952 -s 1 -d 2 -p sctp -e 1500 -c 1 -i 38 -a 1 -x {0.0 2.0 -1 ------- null}
h -t 2.443952 -s 1 -d 2 -p sctp -e 1500 -c 1 -i 38 -a 1 -x {0.0 2.0 -1 ------- null}
r -t 2.463952 -s 1 -d 2 -p sctp -e 1500 -c 1 -i 35 -a 1 -x {0.0 2.0 -1 ------- null}
+ -t 2.463952 -s 2 -d 1 -p sctp -e 48 -c 0 -i 43 -a 0 -x {2.0 0.0 -1 ------- null}
- -t 2.463952 -s 2 -d 1 -p sctp -e 48 -c 0 -i 43 -a 0 -x {2.0 0.0 -1 ------- null}
h -t 2.463952 -s 2 -d 1 -p sctp -e 48 -c 0 -i 43 -a 0 -x {2.0 0.0 -1 ------- null}
r -t 2.472752 -s 1 -d 0 -p sctp -e 48 -c 0 -i 41 -a 0 -x {2.0 0.0 -1 ------- null}
+ -t 2.472752 -s 0 -d 1 -p sctp -e 1500 -c 1 -i 44 -a 1 -x {0.0 2.0 -1 ------- null}
- -t 2.472752 -s 0 -d 1 -p sctp -e 1500 -c 1 -i 44 -a 1 -x {0.0 2.0 -1 ------- null}
h -t 2.472752 -s 0 -d 1 -p sctp -e 1500 -c 1 -i 44 -a 1 -x {0.0 2.0 -1 ------- null}
+ -t 2.472752 -s 0 -d 1 -p sctp -e 1500 -c 1 -i 45 -a 1 -x {0.0 2.0 -1 ------- null}
+ -t 2.472752 -s 0 -d 1 -p sctp -e 1500 -c 1 -i 46 -a 1 -x {0.0 2.0 -1 ------- null}
- -t 2.473952 -s 1 -d 2 -p sctp -e 1500 -c 1 -i 39 -a 1 -x {0.0 2.0 -1 ------- null}
h -t 2.473952 -s 1 -d 2 -p sctp -e 1500 -c 1 -i 39 -a 1 -x {0.0 2.0 -1 ------- null}
- -t 2.473952 -s 0 -d 1 -p sctp -e 1500 -c 1 -i 45 -a 1 -x {0.0 2.0 -1 ------- null}
h -t 2.473952 -s 0 -d 1 -p sctp -e 1500 -c 1 -i 45 -a 1 -x {0.0 2.0 -1 ------- null}
- -t 2.475152 -s 0 -d 1 -p sctp -e 1500 -c 1 -i 46 -a 1 -x {0.0 2.0 -1 ------- null}
h -t 2.475152 -s 0 -d 1 -p sctp -e 1500 -c 1 -i 46 -a 1 -x {0.0 2.0 -1 ------- null}
r -t 2.484912 -s 2 -d 1 -p sctp -e 48 -c 0 -i 42 -a 0 -x {2.0 0.0 -1 ------- null}
+ -t 2.484912 -s 1 -d 0 -p sctp -e 48 -c 0 -i 42 -a 0 -x {2.0 0.0 -1 ------- null}
- -t 2.484912 -s 1 -d 0 -p sctp -e 48 -c 0 -i 42 -a 0 -x {2.0 0.0 -1 ------- null}
h -t 2.484912 -s 1 -d 0 -p sctp -e 48 -c 0 -i 42 -a 0 -x {2.0 0.0 -1 ------- null}
r -t 2.493952 -s 1 -d 2 -p sctp -e 1500 -c 1 -i 36 -a 1 -x {0.0 2.0 -1 ------- null}
- -t 2.503952 -s 1 -d 2 -p sctp -e 1500 -c 1 -i 40 -a 1 -x {0.0 2.0 -1 ------- null}
h -t 2.503952 -s 1 -d 2 -p sctp -e 1500 -c 1 -i 40 -a 1 -x {0.0 2.0 -1 ------- null}
r -t 2.523952 -s 1 -d 2 -p sctp -e 1500 -c 1 -i 37 -a 1 -x {0.0 2.0 -1 ------- null}
+ -t 2.523952 -s 2 -d 1 -p sctp -e 48 -c 0 -i 47 -a 0 -x {2.0 0.0 -1 ------- null}
- -t 2.523952 -s 2 -d 1 -p sctp -e 48 -c 0 -i 47 -a 0 -x {2.0 0.0 -1 ------- null}
h -t 2.523952 -s 2 -d 1 -p sctp -e 48 -c 0 -i 47 -a 0 -x {2.0 0.0 -1 ------- null}
r -t 2.544912 -s 2 -d 1 -p sctp -e 48 -c 0 -i 43 -a 0 -x {2.0 0.0 -1 ------- null}
+ -t 2.544912 -s 1 -d 0 -p sctp -e 48 -c 0 -i 43 -a 0 -x {2.0 0.0 -1 ------- null}
- -t 2.544912 -s 1 -d 0 -p sctp -e 48 -c 0 -i 43 -a 0 -x {2.0 0.0 -1 ------- null}
h -t 2.544912 -s 1 -d 0 -p sctp -e 48 -c 0 -i 43 -a 0 -x {2.0 0.0 -1 ------- null}
r -t 2.553952 -s 1 -d 2 -p sctp -e 1500 -c 1 -i 38 -a 1 -x {0.0 2.0 -1 ------- null}
r -t 2.553952 -s 0 -d 1 -p sctp -e 1500 -c 1 -i 44 -a 1 -x {0.0 2.0 -1 ------- null}
+ -t 2.553952 -s 1 -d 2 -p sctp -e 1500 -c 1 -i 44 -a 1 -x {0.0 2.0 -1 ------- null}
- -t 2.553952 -s 1 -d 2 -p sctp -e 1500 -c 1 -i 44 -a 1 -x {0.0 2.0 -1 ------- null}
h -t 2.553952 -s 1 -d 2 -p sctp -e 1500 -c 1 -i 44 -a 1 -x {0.0 2.0 -1 ------- null}
r -t 2.555152 -s 0 -d 1 -p sctp -e 1500 -c 1 -i 45 -a 1 -x {0.0 2.0 -1 ------- null}