V -t * -v 1.0a5 -a 0
A -t * -n 1 -p 0 -o 0x7fffffff -c 30 -a 1
A -t * -h 1 -m 1073741823 -s 0
c -t * -i 1 -n Blue
c -t * -i 2 -n Red
n -t * -a 0 -s 0 -S UP -v circle -c black -i black
n -t * -a 1 -s 1 -S UP -v circle -c black -i black
n -t * -a 2 -s 2 -S UP -v circle -c black -i black
l -t * -s 0 -d 1 -S UP -r 10000000 -D 0.080000000000000002 -c black
l -t * -s 1 -d 2 -S UP -r 10000000 -D 0.080000000000000002 -c black
+ -t 0.1 -s 0 -d 1 -p sctp -e 56 -c 1 -i 2 -a 1 -x {0.0 2.0 -1 ------- null}
- -t 0.1 -s 0 -d 1 -p sctp -e 56 -c 1 -i 2 -a 1 -x {0.0 2.0 -1 ------- null}
h -t 0.1 -s 0 -d 1 -p sctp -e 56 -c 1 -i 2 -a 1 -x {0.0 2.0 -1 ------- null}
r -t 0.1800448 -s 0 -d 1 -p sctp -e 56 -c 1 -i 2 -a 1 -x {0.0 2.0 -1 ------- null}
+ -t 0.1800448 -s 1 -d 2 -p sctp -e 56 -c 1 -i 2 -a 1 -x {0.0 2.0 -1 ------- null}
- -t 0.1800448 -s 1 -d 2 -p sctp -e 56 -c 1 -i 2 -a 1 -x {0.0 2.0 -1 ------- null}
h -t 0.1800448 -s 1 -d 2 -p sctp -e 56 -c 1 -i 2 -a 1 -x {0.0 2.0 -1 ------- null}
r -t 0.2600896 -s 1 -d 2 -p sctp -e 56 -c 1 -i 2 -a 1 -x {0.0 2.0 -1 ------- null}
+ -t 0.2600896 -s 2 -d 1 -p sctp -e 56 -c 0 -i 3 -a 0 -x {2.0 0.0 -1 ------- null}
- -t 0.2600896 -s 2 -d 1 -p sctp -e 56 -c 0 -i 3 -a 0 -x {2.0 0.0 -1 ------- null}
h -t 0.2600896 -s 2 -d 1 -p sctp -e 56 -c 0 -i 3 -a 0 -x {2.0 0.0 -1 ------- null}
r -t 0.3401344 -s 2 -d 1 -p sctp -e 56 -c 0 -i 3 -a 0 -x {2.0 0.0 -1 ------- null}
+ -t 0.3401344 -s 1 -d 0 -p sctp -e 56 -c 0 -i 3 -a 0 -x {2.0 0.0 -1 ------- null}
- -t 0.3401344 -s 1 -d 0 -p sctp -e 56 -c 0 -i 3 -a 0 -x {2.0 0.0 -1 ------- null}
h -t 0.3401344 -s 1 -d 0 -p sctp -e 56 -c 0 -i 3 -a 0 -x {2.0 0.0 -1 ------- null}
r -t 0.4201792 -s 1 -d 0 -p sctp -e 56 -c 0 -i 3 -a 0 -x {2.0 0.0 -1 ------- null}
+ -t 0.4201792 -s 0 -d 1 -p sctp -e 36 -c 1 -i 4 -a 1 -x {0.0 2.0 -1 ------- null}
- -t 0.4201792 -s 0 -d 1 -p sctp -e 36 -c 1 -i 4 -a 1 -x {0.0 2.0 -1 ------- null}
h -t 0.4201792 -s 0 -d 1 -p sctp -e 36 -c 1 -i 4 -a 1 -x {0.0 2.0 -1 ------- null}
r -t 0.500208 -s 0 -d 1 -p sctp -e 36 -c 1 -i 4 -a 1 -x {0.0 2.0 -1 ------- null}
+ -t 0.500208 -s 1 -d 2 -p sctp -e 36 -c 1 -i 4 -a 1 -x {0.0 2.0 -1 ------- null}
- -t 0.500208 -s 1 -d 2 -p sctp -e 36 -c 1 -i 4 -a 1 -x {0.0 2.0 -1 ------- null}
h -t 0.500208 -s 1 -d 2 -p sctp -e 36 -c 1 -i 4 -a 1 -x {0.0 2.0 -1 ------- null}
r -t 0.5802368 -s 1 -d 2 -p sctp -e 36 -c 1 -i 4 -a 1 -x {0.0 2.0 -1 ------- null}
+ -t 0.5802368 -s 2 -d 1 -p sctp -e 36 -c 0 -i 5 -a 0 -x {2.0 0.0 -1 ------- null}
- -t 0.5802368 -s 2 -d 1 -p sctp -e 36 -c 0 -i 5 -a 0 -x {2.0 0.0 -1 ------- null}
h -t 0.5802368 -s 2 -d 1 -p sctp -e 36 -c 0 -i 5 -a 0 -x {2.0 0.0 -1 ------- null}
r -t 0.6602656 -s 2 -d 1 -p sctp -e 36 -c 0 -i 5 -a 0 -x {2.0 0.0 -1 ------- null}
+ -t 0.6602656 -s 1 -d 0 -p sctp -e 36 -c 0 -i 5 -a 0 -x {2.0 0.0 -1 ------- null}
- -t 0.6602656 -s 1 -d 0 -p sctp -e 36 -c 0 -i 5 -a 0 -x {2.0 0.0 -1 ------- null}
h -t 0.6602656 -s 1 -d 0 -p sctp -e 36 -c 0 -i 5 -a 0 -x {2.0 0.0 -1 ------- null}
r -t 0.7402944 -s 1 -d 0 -p sctp -e 36 -c 0 -i 5 -a 0 -x {2.0 0.0 -1 ------- null}
+ -t 0.7402944 -s 0 -d 1 -p sctp -e 56 -c 1 -i 6 -a 1 -x {0.0 2.0 -1 ------- null}
- -t 0.7402944 -s 0 -d 1 -p sctp -e 56 -c 1 -i 6 -a 1 -x {0.0 2.0 -1 ------- null}
h -t 0.7402944 -s 0 -d 1 -p sctp -e 56 -c 1 -i 6 -a 1 -x {0.0 2.0 -1 ------- null}
r -t 0.8203392 -s 0 -d 1 -p sctp -e 56 -c 1 -i 6 -a 1 -x {0.0 2.0 -1 ------- null}
+ -t 0.8203392 -s 1 -d 2 -p sctp -e 56 -c 1 -i 6 -a 1 -x {0.0 2.0 -1 ------- null}
- -t 0.8203392 -s 1 -d 2 -p sctp -e 56 -c 1 -i 6 -a 1 -x {0.0 2.0 -1 ------- null}
h -t 0.8203392 -s 1 -d 2 -p sctp -e 56 -c 1 -i 6 -a 1 -x {0.0 2.0 -1 ------- null}
r -t 0.900384 -s 1 -d 2 -p sctp -e 56 -c 1 -i 6 -a 1 -x {0.0 2.0 -1 ------- null}
+ -t 0.900384 -s 2 -d 1 -p sctp -e 56 -c 0 -i 7 -a 0 -x {2.0 0.0 -1 ------- null}
- -t 0.900384 -s 2 -d 1 -p sctp -e 56 -c 0 -i 7 -a 0 -x {2.0 0.0 -1 ------- null}
h -t 0.900384 -s 2 -d 1 -p sctp -e 56 -c 0 -i 7 -a 0 -x {2.0 0.0 -1 ------- null}
r -t 0.9804288 -s 2 -d 1 -p sctp -e 56 -c 0 -i 7 -a 0 -x {2.0 0.0 -1 ------- null}
+ -t 0.9804288 -s 1 -d 0 -p sctp -e 56 -c 0 -i 7 -a 0 -x {2.0 0.0 -1 ------- null}
- -t 0.9804288 -s 1 -d 0 -p sctp -e 56 -c 0 -i 7 -a 0 -x {2.0 0.0 -1 ------- null}
h -t 0.9804288 -s 1 -d 0 -p sctp -e 56 -c 0 -i 7 -a 0 -x {2.0 0.0 -1 ------- null}
r -t 1.0604736 -s 1 -d 0 -p sctp -e 56 -c 0 -i 7 -a 0 -x {2.0 0.0 -1 ------- null}
+ -t 1.0604736 -s 0 -d 1 -p sctp -e 1500 -c 1 -i 8 -a 1 -x {0.0 2.0 -1 ------- null}
- -t 1.0604736 -s 0 -d 1 -p sctp -e 1500 -c 1 -i 8 -a 1 -x {0.0 2.0 -1 ------- null}
h -t 1.0604736 -s 0 -d 1 -p sctp -e 1500 -c 1 -i 8 -a 1 -x {0.0 2.0 -1 ------- null}
+ -t 1.0604736 -s 0 -d 1 -p sctp -e 1500 -c 1 -i 9 -a 1 -x {0.0 2.0 -1 ------- null}
+ -t 1.0604736 -s 0 -d 1 -p sctp -e 1500 -c 1 -i 10 -a 1 -x {0.0 2.0 -1 ------- null}
- -t 1.0616736 -s 0 -d 1 -p sctp -e 1500 -c 1 -i 9 -a 1 -x {0.0 2.0 -1 ------- null}
h -t 1.0616736 -s 0 -d 1 -p sctp -e 1500 -c 1 -i 9 -a 1 -x {0.0 2.0 -1 ------- null}
- -t 1.0628736 -s 0 -d 1 -p sctp -e 1500 -c 1 -i 10 -a 1 -x {0.0 2.0 -1 ------- null}
h -t 1.0628736 -s 0 -d 1 -p sctp -e 1500 -c 1 -i 10 -a 1 -x {0.0 2.0 -1 ------- null}
r -t 1.1416736 -s 0 -d 1 -p sctp -e 1500 -c 1 -i 8 -a 1 -x {0.0 2.0 -1 ------- null}
+ -t 1.1416736 -s 1 -d 2 -p sctp -e 1500 -c 1 -i 8 -a 1 -x {0.0 2.0 -1 ------- null}
- -t 1.1416736 -s 1 -d 2 -p sctp -e 1500 -c 1 -i 8 -a 1 -x {0.0 2.0 -1 ------- null}
h -t 1.1416736 -s 1 -d 2 -p sctp -e 1500 -c 1 -i 8 -a 1 -x {0.0 2.0 -1 ------- null}
r -t 1.1428736 -s 0 -d 1 -p sctp -e 1500 -c 1 -i 9 -a 1 -x {0.0 2.0 -1 ------- null}
+ -t 1.1428736 -s 1 -d 2 -p sctp -e 1500 -c 1 -i 9 -a 1 -x {0.0 2.0 -1 ------- null}
- -t 1.1428736 -s 1 -d 2 -p sctp -e 1500 -c 1 -i 9 -a 1 -x {0.0 2.0 -1 ------- null}
h -t 1.1428736 -s 1 -d 2 -p sctp -e 1500 -c 1 -i 9 -a 1 -x {0.0 2.0 -1 ------- null}
r -t 1.1440736 -s 0 -d 1 -p sctp -e 1500 -c 1 -i 10 -a 1 -x {0.0 2.0 -1 ------- null}
+ -t 1.1440736 -s 1 -d 2 -p sctp -e 1500 -c 1 -i 10 -a 1 -x {0.0 2.0 -1 ------- null}
- -t 1.1440736 -s 1 -d 2 -p sctp -e 1500 -c 1 -i 10 -a 1 -x {0.0 2.0 -1 ------- null}
h -t 1.1440736 -s 1 -d 2 -p sctp -e 1500 -c 1 -i 10 -a 1 -x {0.0 2.0 -1 ------- null}
r -t 1.2228736 -s 1 -d 2 -p sctp -e 1500 -c 1 -i 8 -a 1 -x {0.0 2.0 -1 ------- null}
+ -t 1.2228736 -s 2 -d 1 -p sctp -e 48 -c 0 -i 11 -a 0 -x {2.0 0.0 -1 ------- null}
- -t 1.2228736 -s 2 -d 1 -p sctp -e 48 -c 0 -i 11 -a 0 -x {2.0 0.0 -1 ------- null}
h -t 1.2228736 -s 2 -d 1 -p sctp -e 48 -c 0 -i 11 -a 0 -x {2.0 0.0 -1 ------- null}
r -t 1.2240736 -s 1 -d 2 -p sctp -e 1500 -c 1 -i 9 -a 1 -x {0.0 2.0 -1 ------- null}
r -t 1.2252736 -s 1 -d 2 -p sctp -e 1500 -c 1 -i 10 -a 1 -x {0.0 2.0 -1 ------- null}
+ -t 1.2252736 -s 2 -d 1 -p sctp -e 48 -c 0 -i 12 -a 0 -x {2.0 0.0 -1 ------- null}
- -t 1.2252736 -s 2 -d 1 -p sctp -e 48 -c 0 -i 12 -a 0 -x {2.0 0.0 -1 ------- null}
h -t 1.2252736 -s 2 -d 1 -p sctp -e 48 -c 0 -i 12 -a 0 -x {2.0 0.0 -1 ------- null}
r -t 1.302912 -s 2 -d 1 -p sctp -e 48 -c 0 -i 11 -a 0 -x {2.0 0.0 -1 ------- null}
+ -t 1.302912 -s 1 -d 0 -p sctp -e 48 -c 0 -i 11 -a 0 -x {2.0 0.0 -1 ------- null}
- -t 1.302912 -s 1 -d 0 -p sctp -e 48 -c 0 -i 11 -a 0 -x {2.0 0.0 -1 ------- null}
h -t 1.302912 -s 1 -d 0 -p sctp -e 48 -c 0 -i 11 -a 0 -x {2.0 0.0 -1 ------- null}
r -t 1.305312 -s 2 -d 1 -p sctp -e 48 -c 0 -i 12 -a 0 -x {2.0 0.0 -1 ------- null}
+ -t 1.305312 -s 1 -d 0 -p sctp -e 48 -c 0 -i 12 -a 0 -x {2.0 0.0 -1 ------- null}
- -t 1.305312 -s 1 -d 0 -p sctp -e 48 -c 0 -i 12 -a 0 -x {2.0 0.0 -1 ------- null}
h -t 1.305312 -s 1 -d 0 -p sctp -e 48 -c 0 -i 12 -a 0 -x {2.0 0.0 -1 ------- null}
r -t 1.3829504 -s 1 -d 0 -p sctp -e 48 -c 0 -i 11 -a 0 -x {2.0 0.0 -1 ------- null}
+ -t 1.3829504 -s 0 -d 1 -p sctp -e 1500 -c 1 -i 13 -a 1 -x {0.0 2.0 -1 ------- null}
- -t 1.3829504 -s 0 -d 1 -p sctp -e 1500 -c 1 -i 13 -a 1 -x {0.0 2.0 -1 ------- null}
h -t 1.3829504 -s 0 -d 1 -p sctp -e 1500 -c 1 -i 13 -a 1 -x {0.0 2.0 -1 ------- null}
+ -t 1.3829504 -s 0 -d 1 -p sctp -e 1500 -c 1 -i 14 -a 1 -x {0.0 2.0 -1 ------- null}
- -t 1.3841504 -s 0 -d 1 -p sctp -e 1500 -c 1 -i 14 -a 1 -x {0.0 2.0 -1 ------- null}
h -t 1.3841504 -s 0 -d 1 -p sctp -e 1500 -c 1 -i 14 -a 1 -x {0.0 2.0 -1 ------- null}
r -t 1.3853504 -s 1 -d 0 -p sctp -e 48 -c 0 -i 12 -a 0 -x {2.0 0.0 -1 ------- null}
+ -t 1.3853504 -s 0 -d 1 -p sctp -e 1500 -c 1 -i 15 -a 1 -x {0.0 2.0 -1 ------- null}
+ -t 1.3853504 -s 0 -d 1 -p sctp -e 1500 -c 1 -i 16 -a 1 -x {0.0 2.0 -1 ------- null}
+ -t 1.3853504 -s 0 -d 1 -p sctp -e 1500 -c 1 -i 17 -a 1 -x {0.0 2.0 -1 ------- null}
- -t 1.3853504 -s 0 -d 1 -p sctp -e 1500 -c 1 -i 15 -a 1 -x {0.0 2.0 -1 ------- null}
h -t 1.3853504 -s 0 -d 1 -p sctp -e 1500 -c 1 -i 15 -a 1 -x {0.0 2.0 -1 ------- null}
- -t 1.3865504 -s 0 -d 1 -p sctp -e 1500 -c 1 -i 16 -a 1 -x {0.0 2.0 -1 ------- null}
h -t 1.3865504 -s 0 -d 1 -p sctp -e 1500 -c 1 -i 16 -a 1 -x {0.0 2.0 -1 ------- null}
- -t 1.3877504 -s 0 -d 1 -p sctp -e 1500 -c 1 -i 17 -a 1 -x {0.0 2.0 -1 ------- null}
h -t 1.3877504 -s 0 -d 1 -p sctp -e 1500 -c 1 -i 17 -a 1 -x {0.0 2.0 -1 ------- null}
r -t 1.4641504 -s 0 -d 1 -p sctp -e 1500 -c 1 -i 13 -a 1 -x {0.0 2.0 -1 ------- null}
+ -t 1.4641504 -s 1 -d 2 -p sctp -e 1500 -c 1 -i 13 -a 1 -x {0.0 2.0 -1 ------- null}
- -t 1.4641504 -s 1 -d 2 -p sctp -e 1500 -c 1 -i 13 -a 1 -x {0.0 2.0 -1 ------- null}
h -t 1.4641504 -s 1 -d 2 -p sctp -e 1500 -c 1 -i 13 -a 1 -x {0.0 2.0 -1 ------- null}
r -t 1.4653504 -s 0 -d 1 -p sctp -e 1500 -c 1 -i 14 -a 1 -x {0.0 2.0 -1 ------- null}
+ -t 1.4653504 -s 1 -d 2 -p sctp -e 1500 -c 1 -i 14 -a 1 -x {0.0 2.0 -1 ------- null}
- -t 1.4653504 -s 1 -d 2 -p sctp -e 1500 -c 1 -i 14 -a 1 -x {0.0 2.0 -1 ------- null}
h -t 1.4653504 -s 1 -d 2 -p sctp -e 1500 -c 1 -i 14 -a 1 -x {0.0 2.0 -1 ------- null}
r -t 1.4665504 -s 0 -d 1 -p sctp -e 1500 -c 1 -i 15 -a 1 -x {0.0 2.0 -1 ------- null}
+ -t 1.4665504 -s 1 -d 2 -p sctp -e 1500 -c 1 -i 15 -a 1 -x {0.0 2.0 -1 ------- null}
- -t 1.4665504 -s 1 -d 2 -p sctp -e 1500 -c 1 -i 15 -a 1 -x {0.0 2.0 -1 ------- null}
h -t 1.4665504 -s 1 -d 2 -p sctp -e 1500 -c 1 -i 15 -a 1 -x {0.0 2.0 -1 ------- null}
r -t 1.4677504 -s 0 -d 1 -p sctp -e 1500 -c 1 -i 16 -a 1 -x {0.0 2.0 -1 ------- null}
+ -t 1.4677504 -s 1 -d 2 -p sctp -e 1500 -c 1 -i 16 -a 1 -x {0.0 2.0 -1 ------- null}
- -t 1.4677504 -s 1 -d 2 -p sctp -e 1500 -c 1 -i 16 -a 1 -x {0.0 2.0 -1 ------- null}
h -t 1.4677504 -s 1 -d 2 -p sctp -e 1500 -c 1 -i 16 -a 1 -x {0.0 2.0 -1 ------- null}
r -t 1.4689504 -s 0 -d 1 -p sctp -e 1500 -c 1 -i 17 -a 1 -x {0.0 2.0 -1 ------- null}
+ -t 1.4689504 -s 1 -d 2 -p sctp -e 1500 -c 1 -i 17 -a 1 -x {0.0 2.0 -1 ------- null}
- -t 1.4689504 -s 1 -d 2 -p sctp -e 1500 -c 1 -i 17 -a 1 -x {0.0 2.0 -1 ------- null}
h -t 1.4689504 -s 1 -d 2 -p sctp -e 1500 -c 1 -i 17 -a 1 -x {0.0 2.0 -1 ------- null}
r -t 1.5453504 -s 1 -d 2 -p sctp -e 1500 -c 1 -i 13 -a 1 -x {0.0 2.0 -1 ------- null}
r -t 1.5465504 -s 1 -d 2 -p sctp -e 1500 -c 1 -i 14 -a 1 -x {0.0 2.0 -1 ------- null}
+ -t 1.5465504 -s 2 -d 1 -p sctp -e 48 -c 0 -i 18 -a 0 -x {2.0 0.0 -1 ------- null}
- -t 1.5465504 -s 2 -d 1 -p sctp -e 48 -c 0 -i 18 -a 0 -x {2.0 0.0 -1 ------- null}
h -t 1.5465504 -s 2 -d 1 -p sctp -e 48 -c 0 -i 18 -a 0 -x {2.0 0.0 -1 ------- null}
r -t 1.5477504 -s 1 -d 2 -p sctp -e 1500 -c 1 -i 15 -a 1 -x {0.0 2.0 -1 ------- null}
r -t 1.5489504 -s 1 -d 2 -p sctp -e 1500 -c 1 -i 16 -a 1 -x {0.0 2.0 -1 ------- null}
+ -t 1.5489504 -s 2 -d 1 -p sctp -e 48 -c 0 -i 19 -a 0 -x {2.0 0.0 -1 ------- null}
- -t 1.5489504 -s 2 -d 1 -p sctp -e 48 -c 0 -i 19 -a 0 -x {2.0 0.0 -1 ------- null}
h -t 1.5489504 -s 2 -d 1 -p sctp -e 48 -c 0 -i 19 -a 0 -x {2.0 0.0 -1 ------- null}
r -t 1.5501504 -s 1 -d 2 -p sctp -e 1500 -c 1 -i 17 -a 1 -x {0.0 2.0 -1 ------- null}
r -t 1.6265888 -s 2 -d 1 -p sctp -e 48 -c 0 -i 18 -a 0 -x {2.0 0.0 -1 ------- null}
+ -t 1.6265888 -s 1 -d 0 -p sctp -e 48 -c 0 -i 18 -a 0 -x {2.0 0.0 -1 ------- null}
- -t 1.6265888 -s 1 -d 0 -p sctp -e 48 -c 0 -i 18 -a 0 -x {2.0 0.0 -1 ------- null}
h -t 1.6265888 -s 1 -d 0 -p sctp -e 48 -c 0 -i 18 -a 0 -x {2.0 0.0 -1 ------- null}
r -t 1.6289888 -s 2 -d 1 -p sctp -e 48 -c 0 -i 19 -a 0 -x {2.0 0.0 -1 ------- null}
+ -t 1.6289888 -s 1 -d 0 -p sctp -e 48 -c 0 -i 19 -a 0 -x {2.0 0.0 -1 ------- null}
- -t 1.6289888 -s 1 -d 0 -p sctp -e 48 -c 0 -i 19 -a 0 -x {2.0 0.0 -1 ------- null}
h -t 1.6289888 -s 1 -d 0 -p sctp -e 48 -c 0 -i 19 -a 0 -x {2.0 0.0 -1 ------- null}
r -t 1.7066272 -s 1 -d 0 -p sctp -e 48 -c 0 -i 18 -a 0 -x {2.0 0.0 -1 ------- null}
+ -t 1.7066272 -s 0 -d 1 -p sctp -e 1500 -c 1 -i 20 -a 1 -x {0.0 2.0 -1 ------- null}
- -t 1.7066272 -s 0 -d 1 -p sctp -e 1500 -c 1 -i 20 -a 1 -x {0.0 2.0 -1 ------- null}
h -t 1.7066272 -s 0 -d 1 -p sctp -e 1500 -c 1 -i 20 -a 1 -x {0.0 2.0 -1 ------- null}
+ -t 1.7066272 -s 0 -d 1 -p sctp -e 1500 -c 1 -i 21 -a 1 -x {0.0 2.0 -1 ------- null}
+ -t 1.7066272 -s 0 -d 1 -p sctp -e 1500 -c 1 -i 22 -a 1 -x {0.0 2.0 -1 ------- null}
- -t 1.7078272 -s 0 -d 1 -p sctp -e 1500 -c 1 -i 21 -a 1 -x {0.0 2.0 -1 ------- null}
h -t 1.7078272 -s 0 -d 1 -p sctp -e 1500 -c 1 -i 21 -a 1 -x {0.0 2.0 -1 ------- null}
r -t 1.7090272 -s 1 -d 0 -p sctp -e 48 -c 0 -i 19 -a 0 -x {2.0 0.0 -1 ------- null}
+ -t 1.7090272 -s 0 -d 1 -p sctp -e 1500 -c 1 -i 23 -a 1 -x {0.0 2.0 -1 ------- null}
+ -t 1.7090272 -s 0 -d 1 -p sctp -e 1500 -c 1 -i 24 -a 1 -x {0.0 2.0 -1 ------- null}
+ -t 1.7090272 -s 0 -d 1 -p sctp -e 1500 -c 1 -i 25 -a 1 -x {0.0 2.0 -1 ------- null}
- -t 1.7090272 -s 0 -d 1 -p sctp -e 1500 -c 1 -i 22 -a 1 -x {0.0 2.0 -1 ------- null}
h -t 1.7090272 -s 0 -d 1 -p sctp -e 1500 -c 1 -i 22 -a 1 -x {0.0 2.0 -1 ------- null}
- -t 1.7102272 -s 0 -d 1 -p sctp -e 1500 -c 1 -i 23 -a 1 -x {0.0 2.0 -1 ------- null}
h -t 1.7102272 -s 0 -d 1 -p sctp -e 1500 -c 1 -i 23 -a 1 -x {0.0 2.0 -1 ------- null}
- -t 1.7114272 -s 0 -d 1 -p sctp -e 1500 -c 1 -i 24 -a 1 -x {0.0 2.0 -1 ------- null}
h -t 1.7114272 -s 0 -d 1 -p sctp -e 1500 -c 1 -i 24 -a 1 -x {0.0 2.0 -1 ------- null}
- -t 1.7126272 -s 0 -d 1 -p sctp -e 1500 -c 1 -i 25 -a 1 -x {0.0 2.0 -1 ------- null}
h -t 1.7126272 -s 0 -d 1 -p sctp -e 1500 -c 1 -i 25 -a 1 -x {0.0 2.0 -1 ------- null}
+ -t 1.7501504 -s 2 -d 1 -p sctp -e 48 -c 0 -i 26 -a 0 -x {2.0 0.0 -1 ------- null}
- -t 1.7501504 -s 2 -d 1 -p sctp -e 48 -c 0 -i 26 -a 0 -x {2.0 0.0 -1 ------- null}
h -t 1.7501504 -s 2 -d 1 -p sctp -e 48 -c 0 -i 26 -a 0 -x {2.0 0.0 -1 ------- null}
r -t 1.7878272 -s 0 -d 1 -p sctp -e 1500 -c 1 -i 20 -a 1 -x {0.0 2.0 -1 ------- null}
+ -t 1.7878272 -s 1 -d 2 -p sctp -e 1500 -c 1 -i 20 -a 1 -x {0.0 2.0 -1 ------- null}
- -t 1.7878272 -s 1 -d 2 -p sctp -e 1500 -c 1 -i 20 -a 1 -x {0.0 2.0 -1 ------- null}
h -t 1.7878272 -s 1 -d 2 -p sctp -e 1500 -c 1 -i 20 -a 1 -x {0.0 2.0 -1 ------- null}
r -t 1.7890272 -s 0 -d 1 -p sctp -e 1500 -c 1 -i 21 -a 1 -x {0.0 2.0 -1 ------- null}
+ -t 1.7890272 -s 1 -d 2 -p sctp -e 1500 -c 1 -i 21 -a 1 -x {0.0 2.0 -1 ------- null}
- -t 1.7890272 -s 1 -d 2 -p sctp -e 1500 -c 1 -i 21 -a 1 -x {0.0 2.0 -1 ------- null}
h -t 1.7890272 -s 1 -d 2 -p sctp -e 1500 -c 1 -i 21 -a 1 -x {0.0 2.0 -1 ------- null}
r -t 1.7902272 -s 0 -d 1 -p sctp -e 1500 -c 1 -i 22 -a 1 -x {0.0 2.0 -1 ------- null}
+ -t 1.7902272 -s 1 -d 2 -p sctp -e 1500 -c 1 -i 22 -a 1 -x {0.0 2.0 -1 ------- null}
- -t 1.7902272 -s 1 -d 2 -p sctp -e 1500 -c 1 -i 22 -a 1 -x {0.0 2.0 -1 ------- null}
h -t 1.7902272 -s 1 -d 2 -p sctp -e 1500 -c 1 -i 22 -a 1 -x {0.0 2.0 -1 ------- null}
r -t 1.7914272 -s 0 -d 1 -p sctp -e 1500 -c 1 -i 23 -a 1 -x {0.0 2.0 -1 ------- null}
+ -t 1.7914272 -s 1 -d 2 -p sctp -e 1500 -c 1 -i 23 -a 1 -x {0.0 2.0 -1 ------- null}
- -t 1.7914272 -s 1 -d 2 -p sctp -e 1500 -c 1 -i 23 -a 1 -x {0.0 2.0 -1 ------- null}
h -t 1.7914272 -s 1 -d 2 -p sctp -e 1500 -c 1 -i 23 -a 1 -x {0.0 2.0 -1 ------- null}
r -t 1.7926272 -s 0 -d 1 -p sctp -e 1500 -c 1 -i 24 -a 1 -x {0.0 2.0 -1 ------- null}
+ -t 1.7926272 -s 1 -d 2 -p sctp -e 1500 -c 1 -i 24 -a 1 -x {0.0 2.0 -1 ------- null}
- -t 1.7926272 -s 1 -d 2 -p sctp -e 1500 -c 1 -i 24 -a 1 -x {0.0 2.0 -1 ------- null}
h -t 1.7926272 -s 1 -d 2 -p sctp -e 1500 -c 1 -i 24 -a 1 -x {0.0 2.0 -1 ------- null}
r -t 1.7938272 -s 0 -d 1 -p sctp -e 1500 -c 1 -i 25 -a 1 -x {0.0 2.0 -1 ------- null}
+ -t 1.7938272 -s 1 -d 2 -p sctp -e 1500 -c 1 -i 25 -a 1 -x {0.0 2.0 -1 ------- null}
- -t 1.7938272 -s 1 -d 2 -p sctp -e 1500 -c 1 -i 25 -a 1 -x {0.0 2.0 -1 ------- null}
h -t 1.7938272 -s 1 -d 2 -p sctp -e 1500 -c 1 -i 25 -a 1 -x {0.0 2.0 -1 ------- null}
r -t 1.8301888 -s 2 -d 1 -p sctp -e 48 -c 0 -i 26 -a 0 -x {2.0 0.0 -1 ------- null}
+ -t 1.8301888 -s 1 -d 0 -p sctp -e 48 -c 0 -i 26 -a 0 -x {2.0 0.0 -1 ------- null}
- -t 1.8301888 -s 1 -d 0 -p sctp -e 48 -c 0 -i 26 -a 0 -x {2.0 0.0 -1 ------- null}
h -t 1.8301888 -s 1 -d 0 -p sctp -e 48 -c 0 -i 26 -a 0 -x {2.0 0.0 -1 ------- null}
r -t 1.8690272 -s 1 -d 2 -p sctp -e 1500 -c 1 -i 20 -a 1 -x {0.0 2.0 -1 ------- null}
r -t 1.8702272 -s 1 -d 2 -p sctp -e 1500 -c 1 -i 21 -a 1 -x {0.0 2.0 -1 ------- null}
+ -t 1.8702272 -s 2 -d 1 -p sctp -e 48 -c 0 -i 27 -a 0 -x {2.0 0.0 -1 ------- null}
- -t 1.8702272 -s 2 -d 1 -p sctp -e 48 -c 0 -i 27 -a 0 -x {2.0 0.0 -1 ------- null}
h -t 1.8702272 -s 2 -d 1 -p sctp -e 48 -c 0 -i 27 -a 0 -x {2.0 0.0 -1 ------- null}
r -t 1.8714272 -s 1 -d 2 -p sctp -e 1500 -c 1 -i 22 -a 1 -x {0.0 2.0 -1 ------- null}
r -t 1.8726272 -s 1 -d 2 -p sctp -e 1500 -c 1 -i 23 -a 1 -x {0.0 2.0 -1 ------- null}
+ -t 1.8726272 -s 2 -d 1 -p sctp -e 48 -c 0 -i 28 -a 0 -x {2.0 0.0 -1 ------- null}
- -t 1.8726272 -s 2 -d 1 -p sctp -e 48 -c 0 -i 28 -a 0 -x {2.0 0.0 -1 ------- null}
h -t 1.8726272 -s 2 -d 1 -p sctp -e 48 -c 0 -i 28 -a 0 -x {2.0 0.0 -1 ------- null}
r -t 1.8738272 -s 1 -d 2 -p sctp -e 1500 -c 1 -i 24 -a 1 -x {0.0 2.0 -1 ------- null}
r -t 1.8750272 -s 1 -d 2 -p sctp -e 1500 -c 1 -i 25 -a 1 -x {0.0 2.0 -1 ------- null}
+ -t 1.8750272 -s 2 -d 1 -p sctp -e 48 -c 0 -i 29 -a 0 -x {2.0 0.0 -1 ------- null}
- -t 1.8750272 -s 2 -d 1 -p sctp -e 48 -c 0 -i 29 -a 0 -x {2.0 0.0 -1 ------- null}
h -t 1.8750272 -s 2 -d 1 -p sctp -e 48 -c 0 -i 29 -a 0 -x {2.0 0.0 -1 ------- null}
r -t 1.9102272 -s 1 -d 0 -p sctp -e 48 -c 0 -i 26 -a 0 -x {2.0 0.0 -1 ------- null}
+ -t 1.9102272 -s 0 -d 1 -p sctp -e 1500 -c 1 -i 30 -a 1 -x {0.0 2.0 -1 ------- null}
- -t 1.9102272 -s 0 -d 1 -p sctp -e 1500 -c 1 -i 30 -a 1 -x {0.0 2.0 -1 ------- null}
h -t 1.9102272 -s 0 -d 1 -p sctp -e 1500 -c 1 -i 30 -a 1 -x {0.0 2.0 -1 ------- null}
+ -t 1.9102272 -s 0 -d 1 -p sctp -e 1500 -c 1 -i 31 -a 1 -x {0.0 2.0 -1 ------- null}
- -t 1.9114272 -s 0 -d 1 -p sctp -e 1500 -c 1 -i 31 -a 1 -x {0.0 2.0 -1 ------- null}
h -t 1.9114272 -s 0 -d 1 -p sctp -e 1500 -c 1 -i 31 -a 1 -x {0.0 2.0 -1 ------- null}
r -t 1.9502656 -s 2 -d 1 -p sctp -e 48 -c 0 -i 27 -a 0 -x {2.0 0.0 -1 ------- null}
+ -t 1.9502656 -s 1 -d 0 -p sctp -e 48 -c 0 -i 27 -a 0 -x {2.0 0.0 -1 ------- null}
- -t 1.9502656 -s 1 -d 0 -p sctp -e 48 -c 0 -i 27 -a 0 -x {2.0 0.0 -1 ------- null}
h -t 1.9502656 -s 1 -d 0 -p sctp -e 48 -c 0 -i 27 -a 0 -x {2.0 0.0 -1 ------- null}
r -t 1.9526656 -s 2 -d 1 -p sctp -e 48 -c 0 -i 28 -a 0 -x {2.0 0.0 -1 ------- null}
+ -t 1.9526656 -s 1 -d 0 -p sctp -e 48 -c 0 -i 28 -a 0 -x {2.0 0.0 -1 ------- null}
- -t 1.9526656 -s 1 -d 0 -p sctp -e 48 -c 0 -i 28 -a 0 -x {2.0 0.0 -1 ------- null}
h -t 1.9526656 -s 1 -d 0 -p sctp -e 48 -c 0 -i 28 -a 0 -x {2.0 0.0 -1 ------- null}
r -t 1.9550656 -s 2 -d 1 -p sctp -e 48 -c 0 -i 29 -a 0 -x {2.0 0.0 -1 ------- null}
+ -t 1.9550656 -s 1 -d 0 -p sctp -e 48 -c 0 -i 29 -a 0 -x {2.0 0.0 -1 ------- null}
- -t 1.9550656 -s 1 -d 0 -p sctp -e 48 -c 0 -i 29 -a 0 -x {2.0 0.0 -1 ------- null}
h -t 1.9550656 -s 1 -d 0 -p sctp -e 48 -c 0 -i 29 -a 0 -x {2.0 0.0 -1 ------- null}
r -t 1.9914272 -s 0 -d 1 -p sctp -e 1500 -c 1 -i 30 -a 1 -x {0.0 2.0 -1 ------- null}
+ -t 1.9914272 -s 1 -d 2 -p sctp -e 1500 -c 1 -i 30 -a 1 -x {0.0 2.0 -1 ------- null}
- -t 1.9914272 -s 1 -d 2 -p sctp -e 1500 -c 1 -i 30 -a 1 -x {0.0 2.0 -1 ------- null}
h -t 1.9914272 -s 1 -d 2 -p sctp -e 1500 -c 1 -i 30 -a 1 -x {0.0 2.0 -1 ------- null}
r -t 1.9926272 -s 0 -d 1 -p sctp -e 1500 -c 1 -i 31 -a 1 -x {0.0 2.0 -1 ------- null}
+ -t 1.9926272 -s 1 -d 2 -p sctp -e 1500 -c 1 -i 31 -a 1 -x {0.0 2.0 -1 ------- null}
- -t 1.9926272 -s 1 -d 2 -p sctp -e 1500 -c 1 -i 31 -a 1 -x {0.0 2.0 -1 ------- null}
h -t 1.9926272 -s 1 -d 2 -p sctp -e 1500 -c 1 -i 31 -a 1 -x {0.0 2.0 -1 ------- null}
r -t 2.030304 -s 1 -d 0 -p sctp -e 48 -c 0 -i 27 -a 0 -x {2.0 0.0 -1 ------- null}
+ -t 2.030304 -s 0 -d 1 -p sctp -e 1500 -c 1 -i 32 -a 1 -x {0.0 2.0 -1 ------- null}
- -t 2.030304 -s 0 -d 1 -p sctp -e 1500 -c 1 -i 32 -a 1 -x {0.0 2.0 -1 ------- null}
h -t 2.030304 -s 0 -d 1 -p sctp -e 1500 -c 1 -i 32 -a 1 -x {0.0 2.0 -1 ------- null}
+ -t 2.030304 -s 0 -d 1 -p sctp -e 1500 -c 1 -i 33 -a 1 -x {0.0 2.0 -1 ------- null}
+ -t 2.030304 -s 0 -d 1 -p sctp -e 1500 -c 1 -i 34 -a 1 -x {0.0 2.0 -1 ------- null}
- -t 2.031504 -s 0 -d 1 -p sctp -e 1500 -c 1 -i 33 -a 1 -x {0.0 2.0 -1 ------- null}
h -t 2.031504 -s 0 -d 1 -p sctp -e 1500 -c 1 -i 33 -a 1 -x {0.0 2.0 -1 ------- null}
- -t 2.032704 -s 0 -d 1 -p sctp -e 1500 -c 1 -i 34 -a 1 -x {0.0 2.0 -1 ------- null}
h -t 2.032704 -s 0 -d 1 -p sctp -e 1500 -c 1 -i 34 -a 1 -x {0.0 2.0 -1 ------- null}
r -t 2.032704 -s 1 -d 0 -p sctp -e 48 -c 0 -i 28 -a 0 -x {2.0 0.0 -1 ------- null}
+ -t 2.032704 -s 0 -d 1 -p sctp -e 1500 -c 1 -i 35 -a 1 -x {0.0 2.0 -1 ------- null}
+ -t 2.032704 -s 0 -d 1 -p sctp -e 1500 -c 1 -i 36 -a 1 -x {0.0 2.0 -1 ------- null}
+ -t 2.032704 -s 0 -d 1 -p sctp -e 1500 -c 1 -i 37 -a 1 -x {0.0 2.0 -1 ------- null}
- -t 2.033904 -s 0 -d 1 -p sctp -e 1500 -c 1 -i 35 -a 1 -x {0.0 2.0 -1 ------- null}
h -t 2.033904 -s 0 -d 1 -p sctp -e 1500 -c 1 -i 35 -a 1 -x {0.0 2.0 -1 ------- null}
- -t 2.035104 -s 0 -d 1 -p sctp -e 1500 -c 1 -i 36 -a 1 -x {0.0 2.0 -1 ------- null}
h -t 2.035104 -s 0 -d 1 -p sctp -e 1500 -c 1 -i 36 -a 1 -x {0.0 2.0 -1 ------- null}
r -t 2.035104 -s 1 -d 0 -p sctp -e 48 -c 0 -i 29 -a 0 -x {2.0 0.0 -1 ------- null}
+ -t 2.035104 -s 0 -d 1 -p sctp -e 1500 -c 1 -i 38 -a 1 -x {0.0 2.0 -1 ------- null}
+ -t 2.035104 -s 0 -d 1 -p sctp -e 1500 -c 1 -i 39 -a 1 -x {0.0 2.0 -1 ------- null}
+ -t 2.035104 -s 0 -d 1 -p sctp -e 1500 -c 1 -i 40 -a 1 -x {0.0 2.0 -1 ------- null}
- -t 2.036304 -s 0 -d 1 -p sctp -e 1500 -c 1 -i 37 -a 1 -x {0.0 2.0 -1 ------- null}
h -t 2.036304 -s 0 -d 1 -p sctp -e 1500 -c 1 -i 37 -a 1 -x {0.0 2.0 -1 ------- null}
- -t 2.037504 -s 0 -d 1 -p sctp -e 1500 -c 1 -i 38 -a 1 -x {0.0 2.0 -1 ------- null}
h -t 2.037504 -s 0 -d 1 -p sctp -e 1500 -c 1 -i 38 -a 1 -x {0.0 2.0 -1 ------- null}
- -t 2.038704 -s 0 -d 1 -p sctp -e 1500 -c 1 -i 39 -a 1 -x {0.0 2.0 -1 ------- null}
h -t 2.038704 -s 0 -d 1 -p sctp -e 1500 -c 1 -i 39 -a 1 -x {0.0 2.0 -1 ------- null}
- -t 2.039904 -s 0 -d 1 -p sctp -e 1500 -c 1 -i 40 -a 1 -x {0.0 2.0 -1 ------- null}
h -t 2.039904 -s 0 -d 1 -p sctp -e 1500 -c 1 -i 40 -a 1 -x {0.0 2.0 -1 ------- null}
r -t 2.0726272 -s 1 -d 2 -p sctp -e 1500 -c 1 -i 30 -a 1 -x {0.0 2.0 -1 ------- null}
r -t 2.0738272 -s 1 -d 2 -p sctp -e 1500 -c 1 -i 31 -a 1 -x {0.0 2.0 -1 ------- null}
+ -t 2.0738272 -s 2 -d 1 -p sctp -e 48 -c 0 -i 41 -a 0 -x {2.0 0.0 -1 ------- null}
- -t 2.0738272 -s 2 -d 1 -p sctp -e 48 -c 0 -i 41 -a 0 -x {2.0 0.0 -1 ------- null}
h -t 2.0738272 -s 2 -d 1 -p sctp -e 48 -c 0 -i 41 -a 0 -x {2.0 0.0 -1 ------- null}
r -t 2.111504 -s 0 -d 1 -p sctp -e 1500 -c 1 -i 32 -a 1 -x {0.0 2.0 -1 ------- null}
+ -t 2.111504 -s 1 -d 2 -p sctp -e 1500 -c 1 -i 32 -a 1 -x {0.0 2.0 -1 ------- null}
- -t 2.111504 -s 1 -d 2 -p sctp -e 1500 -c 1 -i 32 -a 1 -x {0.0 2.0 -1 ------- null}
h -t 2.111504 -s 1 -d 2 -p sctp -e 1500 -c 1 -i 32 -a 1 -x {0.0 2.0 -1 ------- null}
r -t 2.112704 -s 0 -d 1 -p sctp -e 1500 -c 1 -i 33 -a 1 -x {0.0 2.0 -1 ------- null}
+ -t 2.112704 -s 1 -d 2 -p sctp -e 1500 -c 1 -i 33 -a 1 -x {0.0 2.0 -1 ------- null}
- -t 2.112704 -s 1 -d 2 -p sctp -e 1500 -c 1 -i 33 -a 1 -x {0.0 2.0 -1 ------- null}
h -t 2.112704 -s 1 -d 2 -p sctp -e 1500 -c 1 -i 33 -a 1 -x {0.0 2.0 -1 ------- null}
r -t 2.113904 -s 0 -d 1 -p sctp -e 1500 -c 1 -i 34 -a 1 -x {0.0 2.0 -1 ------- null}
+ -t 2.113904 -s 1 -d 2 -p sctp -e 1500 -c 1 -i 34 -a 1 -x {0.0 2.0 -1 ------- null}
- -t 2.113904 -s 1 -d 2 -p sctp -e 1500 -c 1 -i 34 -a 1 -x {0.0 2.0 -1 ------- null}
h -t 2.113904 -s 1 -d 2 -p sctp -e 1500 -c 1 -i 34 -a 1 -x {0.0 2.0 -1 ------- null}
r -t 2.115104 -s 0 -d 1 -p sctp -e 1500 -c 1 -i 35 -a 1 -x {0.0 2.0 -1 ------- null}
+ -t 2.115104 -s 1 -d 2 -p sctp -e 1500 -c 1 -i 35 -a 1 -x {0.0 2.0 -1 ------- null}
- -t 2.115104 -s 1 -d 2 -p sctp -e 1500 -c 1 -i 35 -a 1 -x {0.0 2.0 -1 ------- null}
h -t 2.115104 -s 1 -d 2 -p sctp -e 1500 -c 1 -i 35 -a 1 -x {0.0 2.0 -1 ------- null}
r -t 2.116304 -s 0 -d 1 -p sctp -e 1500 -c 1 -i 36 -a 1 -x {0.0 2.0 -1 ------- null}
+ -t 2.116304 -s 1 -d 2 -p sctp -e 1500 -c 1 -i 36 -a 1 -x {0.0 2.0 -1 ------- null}
- -t 2.116304 -s 1 -d 2 -p sctp -e 1500 -c 1 -i 36 -a 1 -x {0.0 2.0 -1 ------- null}
h -t 2.116304 -s 1 -d 2 -p sctp -e 1500 -c 1 -i 36 -a 1 -x {0.0 2.0 -1 ------- null}
r -t 2.117504 -s 0 -d 1 -p sctp -e 1500 -c 1 -i 37 -a 1 -x {0.0 2.0 -1 ------- null}
+ -t 2.117504 -s 1 -d 2 -p sctp -e 1500 -c 1 -i 37 -a 1 -x {0.0 2.0 -1 ------- null}
- -t 2.117504 -s 1 -d 2 -p sctp -e 1500 -c 1 -i 37 -a 1 -x {0.0 2.0 -1 ------- null}
h -t 2.117504 -s 1 -d 2 -p sctp -e 1500 -c 1 -i 37 -a 1 -x {0.0 2.0 -1 ------- null}
r -t 2.118704 -s 0 -d 1 -p sctp -e 1500 -c 1 -i 38 -a 1 -x {0.0 2.0 -1 ------- null}
+ -t 2.118704 -s 1 -d 2 -p sctp -e 1500 -c 1 -i 38 -a 1 -x {0.0 2.0 -1 ------- null}
- -t 2.118704 -s 1 -d 2 -p sctp -e 1500 -c 1 -i 38 -a 1 -x {0.0 2.0 -1 ------- null}
h -t 2.118704 -s 1 -d 2 -p sctp -e 1500 -c 1 -i 38 -a 1 -x {0.0 2.0 -1 ------- null}
r -t 2.119904 -s 0 -d 1 -p sctp -e 1500 -c 1 -i 39 -a 1 -x {0.0 2.0 -1 ------- null}
+ -t 2.119904 -s 1 -d 2 -p sctp -e 1500 -c 1 -i 39 -a 1 -x {0.0 2.0 -1 ------- null}
- -t 2.119904 -s 1 -d 2 -p sctp -e 1500 -c 1 -i 39 -a 1 -x {0.0 2.0 -1 ------- null}
h -t 2.119904 -s 1 -d 2 -p sctp -e 1500 -c 1 -i 39 -a 1 -x {0.0 2.0 -1 ------- null}
r -t 2.121104 -s 0 -d 1 -p sctp -e 1500 -c 1 -i 40 -a 1 -x {0.0 2.0 -1 ------- null}
+ -t 2.121104 -s 1 -d 2 -p sctp -e 1500 -c 1 -i 40 -a 1 -x {0.0 2.0 -1 ------- null}
- -t 2.121104 -s 1 -d 2 -p sctp -e 1500 -c 1 -i 40 -a 1 -x {0.0 2.0 -1 ------- null}
h -t 2.121104 -s 1 -d 2 -p sctp -e 1500 -c 1 -i 40 -a 1 -x {0.0 2.0 -1 ------- null}
r -t 2.1538656 -s 2 -d 1 -p sctp -e 48 -c 0 -i 41 -a 0 -x {2.0 0.0 -1 ------- null}
+ -t 2.1538656 -s 1 -d 0 -p sctp -e 48 -c 0 -i 41 -a 0 -x {2.0 0.0 -1 ------- null}
- -t 2.1538656 -s 1 -d 0 -p sctp -e 48 -c 0 -i 41 -a 0 -x {2.0 0.0 -1 ------- null}
h -t 2.1538656 -s 1 -d 0 -p sctp -e 48 -c 0 -i 41 -a 0 -x {2.0 0.0 -1 ------- null}
r -t 2.192704 -s 1 -d 2 -p sctp -e 1500 -c 1 -i 32 -a 1 -x {0.0 2.0 -1 ------- null}
r -t 2.193904 -s 1 -d 2 -p sctp -e 1500 -c 1 -i 33 -a 1 -x {0.0 2.0 -1 ------- null}
+ -t 2.193904 -s 2 -d 1 -p sctp -e 48 -c 0 -i 42 -a 0 -x {2.0 0.0 -1 ------- null}
- -t 2.193904 -s 2 -d 1 -p sctp -e 48 -c 0 -i 42 -a 0 -x {2.0 0.0 -1 ------- null}
h -t 2.193904 -s 2 -d 1 -p sctp -e 48 -c 0 -i 42 -a 0 -x {2.0 0.0 -1 ------- null}
r -t 2.195104 -s 1 -d 2 -p sctp -e 1500 -c 1 -i 34 -a 1 -x {0.0 2.0 -1 ------- null}
r -t 2.196304 -s 1 -d 2 -p sctp -e 1500 -c 1 -i 35 -a 1 -x {0.0 2.0 -1 ------- null}
+ -t 2.196304 -s 2 -d 1 -p sctp -e 48 -c 0 -i 43 -a 0 -x {2.0 0.0 -1 ------- null}
- -t 2.196304 -s 2 -d 1 -p sctp -e 48 -c 0 -i 43 -a 0 -x {2.0 0.0 -1 ------- null}
h -t 2.196304 -s 2 -d 1 -p sctp -e 48 -c 0 -i 43 -a 0 -x {2.0 0.0 -1 ------- null}
r -t 2.197504 -s 1 -d 2 -p sctp -e 1500 -c 1 -i 36 -a 1 -x {0.0 2.0 -1 ------- null}
r -t 2.198704 -s 1 -d 2 -p sctp -e 1500 -c 1 -i 37 -a 1 -x {0.0 2.0 -1 ------- null}
+ -t 2.198704 -s 2 -d 1 -p sctp -e 48 -c 0 -i 44 -a 0 -x {2.0 0.0 -1 ------- null}
- -t 2.198704 -s 2 -d 1 -p sctp -e 48 -c 0 -i 44 -a 0 -x {2.0 0.0 -1 ------- null}
h -t 2.198704 -s 2 -d 1 -p sctp -e 48 -c 0 -i 44 -a 0 -x {2.0 0.0 -1 ------- null}
r -t 2.199904 -s 1 -d 2 -p sctp -e 1500 -c 1 -i 38 -a 1 -x {0.0 2.0 -1 ------- null}
r -t 2.201104 -s 1 -d 2 -p sctp -e 1500 -c 1 -i 39 -a 1 -x {0.0 2.0 -1 ------- null}
+ -t 2.201104 -s 2 -d 1 -p sctp -e 48 -c 0 -i 45 -a 0 -x {2.0 0.0 -1 ------- null}
- -t 2.201104 -s 2 -d 1 -p sctp -e 48 -c 0 -i 45 -a 0 -x {2.0 0.0 -1 ------- null}
h -t 2.201104 -s 2 -d 1 -p sctp -e 48 -c 0 -i 45 -a 0 -x {2.0 0.0 -1 ------- null}
r -t 2.202304 -s 1 -d 2 -p sctp -e 1500 -c 1 -i 40 -a 1 -x {0.0 2.0 -1 ------- null}
r -t 2.233904 -s 1 -d 0 -p sctp -e 48 -c 0 -i 41 -a 0 -x {2.0 0.0 -1 ------- null}
+ -t 2.233904 -s 0 -d 1 -p sctp -e 1500 -c 1 -i 46 -a 1 -x {0.0 2.0 -1 ------- null}
- -t 2.233904 -s 0 -d 1 -p sctp -e 1500 -c 1 -i 46 -a 1 -x {0.0 2.0 -1 ------- null}
h -t 2.233904 -s 0 -d 1 -p sctp -e 1500 -c 1 -i 46 -a 1 -x {0.0 2.0 -1 ------- null}
+ -t 2.233904 -s 0 -d 1 -p sctp -e 1500 -c 1 -i 47 -a 1 -x {0.0 2.0 -1 ------- null}
+ -t 2.233904 -s 0 -d 1 -p sctp -e 1500 -c 1 -i 48 -a 1 -x {0.0 2.0 -1 ------- null}
- -t 2.235104 -s 0 -d 1 -p sctp -e 1500 -c 1 -i 47 -a 1 -x {0.0 2.0 -1 ------- null}
h -t 2.235104 -s 0 -d 1 -p sctp -e 1500 -c 1 -i 47 -a 1 -x {0.0 2.0 -1 ------- null}
- -t 2.236304 -s 0 -d 1 -p sctp -e 1500 -c 1 -i 48 -a 1 -x {0.0 2.0 -1 ------- null}
h -t 2.236304 -s 0 -d 1 -p sctp -e 1500 -c 1 -i 48 -a 1 -x {0.0 2.0 -1 ------- null}
r -t 2.2739424 -s 2 -d 1 -p sctp -e 48 -c 0 -i 42 -a 0 -x {2.0 0.0 -1 ------- null}
+ -t 2.2739424 -s 1 -d 0 -p sctp -e 48 -c 0 -i 42 -a 0 -x {2.0 0.0 -1 ------- null}
- -t 2.2739424 -s 1 -d 0 -p sctp -e 48 -c 0 -i 42 -a 0 -x {2.0 0.0 -1 ------- null}
h -t 2.2739424 -s 1 -d 0 -p sctp -e 48 -c 0 -i 42 -a 0 -x {2.0 0.0 -1 ------- null}
r -t 2.2763424 -s 2 -d 1 -p sctp -e 48 -c 0 -i 43 -a 0 -x {2.0 0.0 -1 ------- null}
+ -t 2.2763424 -s 1 -d 0 -p sctp -e 48 -c 0 -i 43 -a 0 -x {2.0 0.0 -1 ------- null}
- -t 2.2763424 -s 1 -d 0 -p sctp -e 48 -c 0 -i 43 -a 0 -x {2.0 0.0 -1 ------- null}
h -t 2.2763424 -s 1 -d 0 -p sctp -e 48 -c 0 -i 43 -a 0 -x {2.0 0.0 -1 ------- null}