+ 0.1 0 1 sctp 56 ------- 1 0.0 2.0 -1 2
- 0.1 0 1 sctp 56 ------- 1 0.0 2.0 -1 2
r 0.180045 0 1 sctp 56 ------- 1 0.0 2.0 -1 2
+ 0.180045 1 2 sctp 56 ------- 1 0.0 2.0 -1 2
- 0.180045 1 2 sctp 56 ------- 1 0.0 2.0 -1 2
r 0.271245 1 2 sctp 56 ------- 1 0.0 2.0 -1 2
+ 0.271245 2 1 sctp 56 ------- 0 2.0 0.0 -1 3
- 0.271245 2 1 sctp 56 ------- 0 2.0 0.0 -1 3
r 0.362445 2 1 sctp 56 ------- 0 2.0 0.0 -1 3
+ 0.362445 1 0 sctp 56 ------- 0 2.0 0.0 -1 3
- 0.362445 1 0 sctp 56 ------- 0 2.0 0.0 -1 3
r 0.44249 1 0 sctp 56 ------- 0 2.0 0.0 -1 3
+ 0.44249 0 1 sctp 36 ------- 1 0.0 2.0 -1 4
- 0.44249 0 1 sctp 36 ------- 1 0.0 2.0 -1 4
r 0.522518 0 1 sctp 36 ------- 1 0.0 2.0 -1 4
+ 0.522518 1 2 sctp 36 ------- 1 0.0 2.0 -1 4
- 0.522518 1 2 sctp 36 ------- 1 0.0 2.0 -1 4
r 0.609718 1 2 sctp 36 ------- 1 0.0 2.0 -1 4
+ 0.609718 2 1 sctp 36 ------- 0 2.0 0.0 -1 5
- 0.609718 2 1 sctp 36 ------- 0 2.0 0.0 -1 5
r 0.696918 2 1 sctp 36 ------- 0 2.0 0.0 -1 5
+ 0.696918 1 0 sctp 36 ------- 0 2.0 0.0 -1 5
- 0.696918 1 0 sctp 36 ------- 0 2.0 0.0 -1 5
r 0.776947 1 0 sctp 36 ------- 0 2.0 0.0 -1 5
+ 0.776947 0 1 sctp 56 ------- 1 0.0 2.0 -1 6
- 0.776947 0 1 sctp 56 ------- 1 0.0 2.0 -1 6
r 0.856992 0 1 sctp 56 ------- 1 0.0 2.0 -1 6
+ 0.856992 1 2 sctp 56 ------- 1 0.0 2.0 -1 6
- 0.856992 1 2 sctp 56 ------- 1 0.0 2.0 -1 6
r 0.948192 1 2 sctp 56 ------- 1 0.0 2.0 -1 6
+ 0.948192 2 1 sctp 56 ------- 0 2.0 0.0 -1 7
- 0.948192 2 1 sctp 56 ------- 0 2.0 0.0 -1 7
r 1.039392 2 1 sctp 56 ------- 0 2.0 0.0 -1 7
+ 1.039392 1 0 sctp 56 ------- 0 2.0 0.0 -1 7
- 1.039392 1 0 sctp 56 ------- 0 2.0 0.0 -1 7
r 1.119437 1 0 sctp 56 ------- 0 2.0 0.0 -1 7
+ 1.119437 0 1 sctp 1500 ------- 1 0.0 2.0 -1 8
- 1.119437 0 1 sctp 1500 ------- 1 0.0 2.0 -1 8
+ 1.119437 0 1 sctp 1500 ------- 1 0.0 2.0 -1 9
+ 1.119437 0 1 sctp 1500 ------- 1 0.0 2.0 -1 10
- 1.120637 0 1 sctp 1500 ------- 1 0.0 2.0 -1 9
- 1.121837 0 1 sctp 1500 ------- 1 0.0 2.0 -1 10
r 1.200637 0 1 sctp 1500 ------- 1 0.0 2.0 -1 8
+ 1.200637 1 2 sctp 1500 ------- 1 0.0 2.0 -1 8
- 1.200637 1 2 sctp 1500 ------- 1 0.0 2.0 -1 8
r 1.201837 0 1 sctp 1500 ------- 1 0.0 2.0 -1 9
+ 1.201837 1 2 sctp 1500 ------- 1 0.0 2.0 -1 9
r 1.203037 0 1 sctp 1500 ------- 1 0.0 2.0 -1 10
+ 1.203037 1 2 sctp 1500 ------- 1 0.0 2.0 -1 10
- 1.500637 1 2 sctp 1500 ------- 1 0.0 2.0 -1 9
r 1.580637 1 2 sctp 1500 ------- 1 0.0 2.0 -1 8
+ 1.580637 2 1 sctp 48 ------- 0 2.0 0.0 -1 11
- 1.580637 2 1 sctp 48 ------- 0 2.0 0.0 -1 11
r 1.670237 2 1 sctp 48 ------- 0 2.0 0.0 -1 11
+ 1.670237 1 0 sctp 48 ------- 0 2.0 0.0 -1 11
- 1.670237 1 0 sctp 48 ------- 0 2.0 0.0 -1 11
r 1.750275 1 0 sctp 48 ------- 0 2.0 0.0 -1 11
+ 1.750275 0 1 sctp 1500 ------- 1 0.0 2.0 -1 12
- 1.750275 0 1 sctp 1500 ------- 1 0.0 2.0 -1 12
+ 1.750275 0 1 sctp 1500 ------- 1 0.0 2.0 -1 13
- 1.751475 0 1 sctp 1500 ------- 1 0.0 2.0 -1 13
- 1.800637 1 2 sctp 1500 ------- 1 0.0 2.0 -1 10
r 1.831475 0 1 sctp 1500 ------- 1 0.0 2.0 -1 12
+ 1.831475 1 2 sctp 1500 ------- 1 0.0 2.0 -1 12
r 1.832675 0 1 sctp 1500 ------- 1 0.0 2.0 -1 13
+ 1.832675 1 2 sctp 1500 ------- 1 0.0 2.0 -1 13
r 1.880637 1 2 sctp 1500 ------- 1 0.0 2.0 -1 9
+ 2.080637 2 1 sctp 48 ------- 0 2.0 0.0 -1 14
- 2.080637 2 1 sctp 48 ------- 0 2.0 0.0 -1 14
- 2.100637 1 2 sctp 1500 ------- 1 0.0 2.0 -1 12
r 2.170237 2 1 sctp 48 ------- 0 2.0 0.0 -1 14
+ 2.170237 1 0 sctp 48 ------- 0 2.0 0.0 -1 14
- 2.170237 1 0 sctp 48 ------- 0 2.0 0.0 -1 14
r 2.180637 1 2 sctp 1500 ------- 1 0.0 2.0 -1 10
r 2.250275 1 0 sctp 48 ------- 0 2.0 0.0 -1 14
+ 2.250275 0 1 sctp 1500 ------- 1 0.0 2.0 -1 15
- 2.250275 0 1 sctp 1500 ------- 1 0.0 2.0 -1 15
+ 2.250275 0 1 sctp 1500 ------- 1 0.0 2.0 -1 16
- 2.251475 0 1 sctp 1500 ------- 1 0.0 2.0 -1 16
r 2.331475 0 1 sctp 1500 ------- 1 0.0 2.0 -1 15
+ 2.331475 1 2 sctp 1500 ------- 1 0.0 2.0 -1 15
r 2.332675 0 1 sctp 1500 ------- 1 0.0 2.0 -1 16
+ 2.332675 1 2 sctp 1500 ------- 1 0.0 2.0 -1 16
+ 2.380637 2 1 sctp 48 ------- 0 2.0 0.0 -1 17
- 2.380637 2 1 sctp 48 ------- 0 2.0 0.0 -1 17
- 2.400637 1 2 sctp 1500 ------- 1 0.0 2.0 -1 13
r 2.470237 2 1 sctp 48 ------- 0 2.0 0.0 -1 17
+ 2.470237 1 0 sctp 48 ------- 0 2.0 0.0 -1 17
- 2.470237 1 0 sctp 48 ------- 0 2.0 0.0 -1 17
r 2.480637 1 2 sctp 1500 ------- 1 0.0 2.0 -1 12
r 2.550275 1 0 sctp 48 ------- 0 2.0 0.0 -1 17
+ 2.550275 0 1 sctp 1500 ------- 1 0.0 2.0 -1 18
- 2.550275 0 1 sctp 1500 ------- 1 0.0 2.0 -1 18
+ 2.550275 0 1 sctp 1500 ------- 1 0.0 2.0 -1 19
- 2.551475 0 1 sctp 1500 ------- 1 0.0 2.0 -1 19
r 2.631475 0 1 sctp 1500 ------- 1 0.0 2.0 -1 18
+ 2.631475 1 2 sctp 1500 ------- 1 0.0 2.0 -1 18
r 2.632675 0 1 sctp 1500 ------- 1 0.0 2.0 -1 19
+ 2.632675 1 2 sctp 1500 ------- 1 0.0 2.0 -1 19
+ 2.680637 2 1 sctp 48 ------- 0 2.0 0.0 -1 20
- 2.680637 2 1 sctp 48 ------- 0 2.0 0.0 -1 20
- 2.700637 1 2 sctp 1500 ------- 1 0.0 2.0 -1 15
r 2.770237 2 1 sctp 48 ------- 0 2.0 0.0 -1 20
+ 2.770237 1 0 sctp 48 ------- 0 2.0 0.0 -1 20
- 2.770237 1 0 sctp 48 ------- 0 2.0 0.0 -1 20
r 2.780637 1 2 sctp 1500 ------- 1 0.0 2.0 -1 13
r 2.850275 1 0 sctp 48 ------- 0 2.0 0.0 -1 20
+ 2.850275 0 1 sctp 1500 ------- 1 0.0 2.0 -1 21
- 2.850275 0 1 sctp 1500 ------- 1 0.0 2.0 -1 21
+ 2.850275 0 1 sctp 1500 ------- 1 0.0 2.0 -1 22
- 2.851475 0 1 sctp 1500 ------- 1 0.0 2.0 -1 22
r 2.931475 0 1 sctp 1500 ------- 1 0.0 2.0 -1 21
+ 2.931475 1 2 sctp 1500 ------- 1 0.0 2.0 -1 21
r 2.932675 0 1 sctp 1500 ------- 1 0.0 2.0 -1 22
+ 2.932675 1 2 sctp 1500 ------- 1 0.0 2.0 -1 22
+ 2.980637 2 1 sctp 48 ------- 0 2.0 0.0 -1 23
- 2.980637 2 1 sctp 48 ------- 0 2.0 0.0 -1 23
- 3.000637 1 2 sctp 1500 ------- 1 0.0 2.0 -1 16
r 3.070237 2 1 sctp 48 ------- 0 2.0 0.0 -1 23
+ 3.070237 1 0 sctp 48 ------- 0 2.0 0.0 -1 23
- 3.070237 1 0 sctp 48 ------- 0 2.0 0.0 -1 23
r 3.080637 1 2 sctp 1500 ------- 1 0.0 2.0 -1 15
r 3.150275 1 0 sctp 48 ------- 0 2.0 0.0 -1 23
+ 3.150275 0 1 sctp 1500 ------- 1 0.0 2.0 -1 24
- 3.150275 0 1 sctp 1500 ------- 1 0.0 2.0 -1 24
+ 3.150275 0 1 sctp 1500 ------- 1 0.0 2.0 -1 25
- 3.151475 0 1 sctp 1500 ------- 1 0.0 2.0 -1 25
r 3.231475 0 1 sctp 1500 ------- 1 0.0 2.0 -1 24
+ 3.231475 1 2 sctp 1500 ------- 1 0.0 2.0 -1 24
r 3.232675 0 1 sctp 1500 ------- 1 0.0 2.0 -1 25
+ 3.232675 1 2 sctp 1500 ------- 1 0.0 2.0 -1 25
+ 3.280637 2 1 sctp 48 ------- 0 2.0 0.0 -1 26
- 3.280637 2 1 sctp 48 ------- 0 2.0 0.0 -1 26
- 3.300637 1 2 sctp 1500 ------- 1 0.0 2.0 -1 18
r 3.370237 2 1 sctp 48 ------- 0 2.0 0.0 -1 26
+ 3.370237 1 0 sctp 48 ------- 0 2.0 0.0 -1 26
- 3.370237 1 0 sctp 48 ------- 0 2.0 0.0 -1 26
r 3.380637 1 2 sctp 1500 ------- 1 0.0 2.0 -1 16
r 3.450275 1 0 sctp 48 ------- 0 2.0 0.0 -1 26
+ 3.450275 0 1 sctp 1500 ------- 1 0.0 2.0 -1 27
- 3.450275 0 1 sctp 1500 ------- 1 0.0 2.0 -1 27
+ 3.450275 0 1 sctp 1500 ------- 1 0.0 2.0 -1 28
- 3.451475 0 1 sctp 1500 ------- 1 0.0 2.0 -1 28
r 3.531475 0 1 sctp 1500 ------- 1 0.0 2.0 -1 27
+ 3.531475 1 2 sctp 1500 ------- 1 0.0 2.0 -1 27
r 3.532675 0 1 sctp 1500 ------- 1 0.0 2.0 -1 28
+ 3.532675 1 2 sctp 1500 ------- 1 0.0 2.0 -1 28
+ 3.580637 2 1 sctp 48 ------- 0 2.0 0.0 -1 29
- 3.580637 2 1 sctp 48 ------- 0 2.0 0.0 -1 29
- 3.600637 1 2 sctp 1500 ------- 1 0.0 2.0 -1 19
r 3.670237 2 1 sctp 48 ------- 0 2.0 0.0 -1 29
+ 3.670237 1 0 sctp 48 ------- 0 2.0 0.0 -1 29
- 3.670237 1 0 sctp 48 ------- 0 2.0 0.0 -1 29
r 3.680637 1 2 sctp 1500 ------- 1 0.0 2.0 -1 18
r 3.750275 1 0 sctp 48 ------- 0 2.0 0.0 -1 29
+ 3.750275 0 1 sctp 1500 ------- 1 0.0 2.0 -1 30
- 3.750275 0 1 sctp 1500 ------- 1 0.0 2.0 -1 30
+ 3.750275 0 1 sctp 1500 ------- 1 0.0 2.0 -1 31
- 3.751475 0 1 sctp 1500 ------- 1 0.0 2.0 -1 31
r 3.831475 0 1 sctp 1500 ------- 1 0.0 2.0 -1 30
+ 3.831475 1 2 sctp 1500 ------- 1 0.0 2.0 -1 30
r 3.832675 0 1 sctp 1500 ------- 1 0.0 2.0 -1 31
+ 3.832675 1 2 sctp 1500 ------- 1 0.0 2.0 -1 31
+ 3.880637 2 1 sctp 48 ------- 0 2.0 0.0 -1 32
- 3.880637 2 1 sctp 48 ------- 0 2.0 0.0 -1 32
- 3.900637 1 2 sctp 1500 ------- 1 0.0 2.0 -1 21
r 3.970237 2 1 sctp 48 ------- 0 2.0 0.0 -1 32
+ 3.970237 1 0 sctp 48 ------- 0 2.0 0.0 -1 32
- 3.970237 1 0 sctp 48 ------- 0 2.0 0.0 -1 32
r 3.980637 1 2 sctp 1500 ------- 1 0.0 2.0 -1 19
r 4.050275 1 0 sctp 48 ------- 0 2.0 0.0 -1 32
+ 4.050275 0 1 sctp 1500 ------- 1 0.0 2.0 -1 33
- 4.050275 0 1 sctp 1500 ------- 1 0.0 2.0 -1 33
+ 4.050275 0 1 sctp 1500 ------- 1 0.0 2.0 -1 34
- 4.051475 0 1 sctp 1500 ------- 1 0.0 2.0 -1 34
r 4.131475 0 1 sctp 1500 ------- 1 0.0 2.0 -1 33
+ 4.131475 1 2 sctp 1500 ------- 1 0.0 2.0 -1 33
r 4.132675 0 1 sctp 1500 ------- 1 0.0 2.0 -1 34
+ 4.132675 1 2 sctp 1500 ------- 1 0.0 2.0 -1 34
+ 4.180637 2 1 sctp 48 ------- 0 2.0 0.0 -1 35
- 4.180637 2 1 sctp 48 ------- 0 2.0 0.0 -1 35
- 4.200637 1 2 sctp 1500 ------- 1 0.0 2.0 -1 22
r 4.270237 2 1 sctp 48 ------- 0 2.0 0.0 -1 35
+ 4.270237 1 0 sctp 48 ------- 0 2.0 0.0 -1 35
- 4.270237 1 0 sctp 48 ------- 0 2.0 0.0 -1 35
r 4.280637 1 2 sctp 1500 ------- 1 0.0 2.0 -1 21
r 4.350275 1 0 sctp 48 ------- 0 2.0 0.0 -1 35
+ 4.350275 0 1 sctp 1500 ------- 1 0.0 2.0 -1 36
- 4.350275 0 1 sctp 1500 ------- 1 0.0 2.0 -1 36
+ 4.350275 0 1 sctp 1500 ------- 1 0.0 2.0 -1 37
- 4.351475 0 1 sctp 1500 ------- 1 0.0 2.0 -1 37
r 4.431475 0 1 sctp 1500 ------- 1 0.0 2.0 -1 36
+ 4.431475 1 2 sctp 1500 ------- 1 0.0 2.0 -1 36
r 4.432675 0 1 sctp 1500 ------- 1 0.0 2.0 -1 37
+ 4.432675 1 2 sctp 1500 ------- 1 0.0 2.0 -1 37
+ 4.480637 2 1 sctp 48 ------- 0 2.0 0.0 -1 38
- 4.480637 2 1 sctp 48 ------- 0 2.0 0.0 -1 38
- 4.500637 1 2 sctp 1500 ------- 1 0.0 2.0 -1 24
r 4.570237 2 1 sctp 48 ------- 0 2.0 0.0 -1 38
+ 4.570237 1 0 sctp 48 ------- 0 2.0 0.0 -1 38
- 4.570237 1 0 sctp 48 ------- 0 2.0 0.0 -1 38
r 4.580637 1 2 sctp 1500 ------- 1 0.0 2.0 -1 22
r 4.650275 1 0 sctp 48 ------- 0 2.0 0.0 -1 38
+ 4.650275 0 1 sctp 1500 ------- 1 0.0 2.0 -1 39
- 4.650275 0 1 sctp 1500 ------- 1 0.0 2.0 -1 39
+ 4.650275 0 1 sctp 1500 ------- 1 0.0 2.0 -1 40
- 4.651475 0 1 sctp 1500 ------- 1 0.0 2.0 -1 40
r 4.731475 0 1 sctp 1500 ------- 1 0.0 2.0 -1 39
+ 4.731475 1 2 sctp 1500 ------- 1 0.0 2.0 -1 39
r 4.732675 0 1 sctp 1500 ------- 1 0.0 2.0 -1 40
+ 4.732675 1 2 sctp 1500 ------- 1 0.0 2.0 -1 40
+ 4.780637 2 1 sctp 48 ------- 0 2.0 0.0 -1 41
- 4.780637 2 1 sctp 48 ------- 0 2.0 0.0 -1 41
- 4.800637 1 2 sctp 1500 ------- 1 0.0 2.0 -1 25
r 4.870237 2 1 sctp 48 ------- 0 2.0 0.0 -1 41
+ 4.870237 1 0 sctp 48 ------- 0 2.0 0.0 -1 41
- 4.870237 1 0 sctp 48 ------- 0 2.0 0.0 -1 41
r 4.880637 1 2 sctp 1500 ------- 1 0.0 2.0 -1 24
r 4.950275 1 0 sctp 48 ------- 0 2.0 0.0 -1 41
+ 4.950275 0 1 sctp 1500 ------- 1 0.0 2.0 -1 42
- 4.950275 0 1 sctp 1500 ------- 1 0.0 2.0 -1 42
+ 4.950275 0 1 sctp 1500 ------- 1 0.0 2.0 -1 43
- 4.951475 0 1 sctp 1500 ------- 1 0.0 2.0 -1 43
r 5.031475 0 1 sctp 1500 ------- 1 0.0 2.0 -1 42
+ 5.031475 1 2 sctp 1500 ------- 1 0.0 2.0 -1 42
r 5.032675 0 1 sctp 1500 ------- 1 0.0 2.0 -1 43
+ 5.032675 1 2 sctp 1500 ------- 1 0.0 2.0 -1 43
+ 5.080637 2 1 sctp 48 ------- 0 2.0 0.0 -1 44
- 5.080637 2 1 sctp 48 ------- 0 2.0 0.0 -1 44
- 5.100637 1 2 sctp 1500 ------- 1 0.0 2.0 -1 27
r 5.170237 2 1 sctp 48 ------- 0 2.0 0.0 -1 44
+ 5.170237 1 0 sctp 48 ------- 0 2.0 0.0 -1 44
- 5.170237 1 0 sctp 48 ------- 0 2.0 0.0 -1 44
r 5.180637 1 2 sctp 1500 ------- 1 0.0 2.0 -1 25
r 5.250275 1 0 sctp 48 ------- 0 2.0 0.0 -1 44
+ 5.250275 0 1 sctp 1500 ------- 1 0.0 2.0 -1 45
- 5.250275 0 1 sctp 1500 ------- 1 0.0 2.0 -1 45
+ 5.250275 0 1 sctp 1500 ------- 1 0.0 2.0 -1 46
- 5.251475 0 1 sctp 1500 ------- 1 0.0 2.0 -1 46
r 5.331475 0 1 sctp 1500 ------- 1 0.0 2.0 -1 45
+ 5.331475 1 2 sctp 1500 ------- 1 0.0 2.0 -1 45
r 5.332675 0 1 sctp 1500 ------- 1 0.0 2.0 -1 46
+ 5.332675 1 2 sctp 1500 ------- 1 0.0 2.0 -1 46
+ 5.380637 2 1 sctp 48 ------- 0 2.0 0.0 -1 47
- 5.380637 2 1 sctp 48 ------- 0 2.0 0.0 -1 47
- 5.400637 1 2 sctp 1500 ------- 1 0.0 2.0 -1 28
r 5.470237 2 1 sctp 48 ------- 0 2.0 0.0 -1 47
+ 5.470237 1 0 sctp 48 ------- 0 2.0 0.0 -1 47
- 5.470237 1 0 sctp 48 ------- 0 2.0 0.0 -1 47
r 5.480637 1 2 sctp 1500 ------- 1 0.0 2.0 -1 27
r 5.550275 1 0 sctp 48 ------- 0 2.0 0.0 -1 47
+ 5.550275 0 1 sctp 1500 ------- 1 0.0 2.0 -1 48
- 5.550275 0 1 sctp 1500 ------- 1 0.0 2.0 -1 48
+ 5.550275 0 1 sctp 1500 ------- 1 0.0 2.0 -1 49
- 5.551475 0 1 sctp 1500 ------- 1 0.0 2.0 -1 49
r 5.631475 0 1 sctp 1500 ------- 1 0.0 2.0 -1 48
+ 5.631475 1 2 sctp 1500 ------- 1 0.0 2.0 -1 48
r 5.632675 0 1 sctp 1500 ------- 1 0.0 2.0 -1 49
+ 5.632675 1 2 sctp 1500 ------- 1 0.0 2.0 -1 49
+ 5.680637 2 1 sctp 48 ------- 0 2.0 0.0 -1 50
- 5.680637 2 1 sctp 48 ------- 0 2.0 0.0 -1 50
- 5.700637 1 2 sctp 1500 ------- 1 0.0 2.0 -1 30
r 5.770237 2 1 sctp 48 ------- 0 2.0 0.0 -1 50
+ 5.770237 1 0 sctp 48 ------- 0 2.0 0.0 -1 50
- 5.770237 1 0 sctp 48 ------- 0 2.0 0.0 -1 50
r 5.780637 1 2 sctp 1500 ------- 1 0.0 2.0 -1 28
r 5.850275 1 0 sctp 48 ------- 0 2.0 0.0 -1 50
+ 5.850275 0 1 sctp 1500 ------- 1 0.0 2.0 -1 51
- 5.850275 0 1 sctp 1500 ------- 1 0.0 2.0 -1 51
+ 5.850275 0 1 sctp 1500 ------- 1 0.0 2.0 -1 52
- 5.851475 0 1 sctp 1500 ------- 1 0.0 2.0 -1 52
r 5.931475 0 1 sctp 1500 ------- 1 0.0 2.0 -1 51
+ 5.931475 1 2 sctp 1500 ------- 1 0.0 2.0 -1 51
r 5.932675 0 1 sctp 1500 ------- 1 0.0 2.0 -1 52
+ 5.932675 1 2 sctp 1500 ------- 1 0.0 2.0 -1 52
+ 5.980637 2 1 sctp 48 ------- 0 2.0 0.0 -1 53
- 5.980637 2 1 sctp 48 ------- 0 2.0 0.0 -1 53
- 6.000637 1 2 sctp 1500 ------- 1 0.0 2.0 -1 31
r 6.070237 2 1 sctp 48 ------- 0 2.0 0.0 -1 53
+ 6.070237 1 0 sctp 48 ------- 0 2.0 0.0 -1 53
- 6.070237 1 0 sctp 48 ------- 0 2.0 0.0 -1 53
r 6.080637 1 2 sctp 1500 ------- 1 0.0 2.0 -1 30
r 6.150275 1 0 sctp 48 ------- 0 2.0 0.0 -1 53
+ 6.150275 0 1 sctp 1500 ------- 1 0.0 2.0 -1 54
- 6.150275 0 1 sctp 1500 ------- 1 0.0 2.0 -1 54
+ 6.150275 0 1 sctp 1500 ------- 1 0.0 2.0 -1 55
- 6.151475 0 1 sctp 1500 ------- 1 0.0 2.0 -1 55
r 6.231475 0 1 sctp 1500 ------- 1 0.0 2.0 -1 54
+ 6.231475 1 2 sctp 1500 ------- 1 0.0 2.0 -1 54
r 6.232675 0 1 sctp 1500 ------- 1 0.0 2.0 -1 55
+ 6.232675 1 2 sctp 1500 ------- 1 0.0 2.0 -1 55
+ 6.280637 2 1 sctp 48 ------- 0 2.0 0.0 -1 56
- 6.280637 2 1 sctp 48 ------- 0 2.0 0.0 -1 56
- 6.300637 1 2 sctp 1500 ------- 1 0.0 2.0 -1 33
r 6.370237 2 1 sctp 48 ------- 0 2.0 0.0 -1 56
+ 6.370237 1 0 sctp 48 ------- 0 2.0 0.0 -1 56
- 6.370237 1 0 sctp 48 ------- 0 2.0 0.0 -1 56
r 6.380637 1 2 sctp 1500 ------- 1 0.0 2.0 -1 31
r 6.450275 1 0 sctp 48 ------- 0 2.0 0.0 -1 56
+ 6.450275 0 1 sctp 1500 ------- 1 0.0 2.0 -1 57
- 6.450275 0 1 sctp 1500 ------- 1 0.0 2.0 -1 57
+ 6.450275 0 1 sctp 1500 ------- 1 0.0 2.0 -1 58
- 6.451475 0 1 sctp 1500 ------- 1 0.0 2.0 -1 58
r 6.531475 0 1 sctp 1500 ------- 1 0.0 2.0 -1 57
+ 6.531475 1 2 sctp 1500 ------- 1 0.0 2.0 -1 57
r 6.532675 0 1 sctp 1500 ------- 1 0.0 2.0 -1 58
+ 6.532675 1 2 sctp 1500 ------- 1 0.0 2.0 -1 58
+ 6.580637 2 1 sctp 48 ------- 0 2.0 0.0 -1 59
- 6.580637 2 1 sctp 48 ------- 0 2.0 0.0 -1 59
- 6.600637 1 2 sctp 1500 ------- 1 0.0 2.0 -1 34
r 6.670237 2 1 sctp 48 ------- 0 2.0 0.0 -1 59
+ 6.670237 1 0 sctp 48 ------- 0 2.0 0.0 -1 59
- 6.670237 1 0 sctp 48 ------- 0 2.0 0.0 -1 59
r 6.680637 1 2 sctp 1500 ------- 1 0.0 2.0 -1 33
r 6.750275 1 0 sctp 48 ------- 0 2.0 0.0 -1 59
+ 6.750275 0 1 sctp 1500 ------- 1 0.0 2.0 -1 60
- 6.750275 0 1 sctp 1500 ------- 1 0.0 2.0 -1 60
+ 6.750275 0 1 sctp 1500 ------- 1 0.0 2.0 -1 61
- 6.751475 0 1 sctp 1500 ------- 1 0.0 2.0 -1 61
r 6.831475 0 1 sctp 1500 ------- 1 0.0 2.0 -1 60
+ 6.831475 1 2 sctp 1500 ------- 1 0.0 2.0 -1 60
r 6.832675 0 1 sctp 1500 ------- 1 0.0 2.0 -1 61
+ 6.832675 1 2 sctp 1500 ------- 1 0.0 2.0 -1 61
+ 6.880637 2 1 sctp 48 ------- 0 2.0 0.0 -1 62
- 6.880637 2 1 sctp 48 ------- 0 2.0 0.0 -1 62
- 6.900637 1 2 sctp 1500 ------- 1 0.0 2.0 -1 36
r 6.970237 2 1 sctp 48 ------- 0 2.0 0.0 -1 62
+ 6.970237 1 0 sctp 48 ------- 0 2.0 0.0 -1 62
- 6.970237 1 0 sctp 48 ------- 0 2.0 0.0 -1 62
r 6.980637 1 2 sctp 1500 ------- 1 0.0 2.0 -1 34
r 7.050275 1 0 sctp 48 ------- 0 2.0 0.0 -1 62
+ 7.050275 0 1 sctp 1500 ------- 1 0.0 2.0 -1 63
- 7.050275 0 1 sctp 1500 ------- 1 0.0 2.0 -1 63
+ 7.050275 0 1 sctp 1500 ------- 1 0.0 2.0 -1 64
- 7.051475 0 1 sctp 1500 ------- 1 0.0 2.0 -1 64
r 7.131475 0 1 sctp 1500 ------- 1 0.0 2.0 -1 63
+ 7.131475 1 2 sctp 1500 ------- 1 0.0 2.0 -1 63
r 7.132675 0 1 sctp 1500 ------- 1 0.0 2.0 -1 64
+ 7.132675 1 2 sctp 1500 ------- 1 0.0 2.0 -1 64
+ 7.180637 2 1 sctp 48 ------- 0 2.0 0.0 -1 65
- 7.180637 2 1 sctp 48 ------- 0 2.0 0.0 -1 65
- 7.200637 1 2 sctp 1500 ------- 1 0.0 2.0 -1 37
r 7.270237 2 1 sctp 48 ------- 0 2.0 0.0 -1 65
+ 7.270237 1 0 sctp 48 ------- 0 2.0 0.0 -1 65
- 7.270237 1 0 sctp 48 ------- 0 2.0 0.0 -1 65
r 7.280637 1 2 sctp 1500 ------- 1 0.0 2.0 -1 36
r 7.350275 1 0 sctp 48 ------- 0 2.0 0.0 -1 65
+ 7.350275 0 1 sctp 1500 ------- 1 0.0 2.0 -1 66
- 7.350275 0 1 sctp 1500 ------- 1 0.0 2.0 -1 66
+ 7.350275 0 1 sctp 1500 ------- 1 0.0 2.0 -1 67
- 7.351475 0 1 sctp 1500 ------- 1 0.0 2.0 -1 67
r 7.431475 0 1 sctp 1500 ------- 1 0.0 2.0 -1 66
+ 7.431475 1 2 sctp 1500 ------- 1 0.0 2.0 -1 66
r 7.432675 0 1 sctp 1500 ------- 1 0.0 2.0 -1 67
+ 7.432675 1 2 sctp 1500 ------- 1 0.0 2.0 -1 67
+ 7.480637 2 1 sctp 48 ------- 0 2.0 0.0 -1 68
- 7.480637 2 1 sctp 48 ------- 0 2.0 0.0 -1 68
- 7.500637 1 2 sctp 1500 ------- 1 0.0 2.0 -1 39
r 7.570237 2 1 sctp 48 ------- 0 2.0 0.0 -1 68
+ 7.570237 1 0 sctp 48 ------- 0 2.0 0.0 -1 68
- 7.570237 1 0 sctp 48 ------- 0 2.0 0.0 -1 68
r 7.580637 1 2 sctp 1500 ------- 1 0.0 2.0 -1 37
r 7.650275 1 0 sctp 48 ------- 0 2.0 0.0 -1 68
+ 7.650275 0 1 sctp 1500 ------- 1 0.0 2.0 -1 69
- 7.650275 0 1 sctp 1500 ------- 1 0.0 2.0 -1 69
+ 7.650275 0 1 sctp 1500 ------- 1 0.0 2.0 -1 70
- 7.651475 0 1 sctp 1500 ------- 1 0.0 2.0 -1 70
r 7.731475 0 1 sctp 1500 ------- 1 0.0 2.0 -1 69
+ 7.731475 1 2 sctp 1500 ------- 1 0.0 2.0 -1 69
r 7.732675 0 1 sctp 1500 ------- 1 0.0 2.0 -1 70
+ 7.732675 1 2 sctp 1500 ------- 1 0.0 2.0 -1 70
+ 7.780637 2 1 sctp 48 ------- 0 2.0 0.0 -1 71
- 7.780637 2 1 sctp 48 ------- 0 2.0 0.0 -1 71
- 7.800637 1 2 sctp 1500 ------- 1 0.0 2.0 -1 40
r 7.870237 2 1 sctp 48 ------- 0 2.0 0.0 -1 71
+ 7.870237 1 0 sctp 48 ------- 0 2.0 0.0 -1 71
- 7.870237 1 0 sctp 48 ------- 0 2.0 0.0 -1 71
r 7.880637 1 2 sctp 1500 ------- 1 0.0 2.0 -1 39
r 7.950275 1 0 sctp 48 ------- 0 2.0 0.0 -1 71
+ 7.950275 0 1 sctp 1500 ------- 1 0.0 2.0 -1 72
- 7.950275 0 1 sctp 1500 ------- 1 0.0 2.0 -1 72
+ 7.950275 0 1 sctp 1500 ------- 1 0.0 2.0 -1 73
- 7.951475 0 1 sctp 1500 ------- 1 0.0 2.0 -1 73
r 8.031475 0 1 sctp 1500 ------- 1 0.0 2.0 -1 72
+ 8.031475 1 2 sctp 1500 ------- 1 0.0 2.0 -1 72
r 8.032675 0 1 sctp 1500 ------- 1 0.0 2.0 -1 73
+ 8.032675 1 2 sctp 1500 ------- 1 0.0 2.0 -1 73
+ 8.080637 2 1 sctp 48 ------- 0 2.0 0.0 -1 74
- 8.080637 2 1 sctp 48 ------- 0 2.0 0.0 -1 74
- 8.100637 1 2 sctp 1500 ------- 1 0.0 2.0 -1 42
r 8.170237 2 1 sctp 48 ------- 0 2.0 0.0 -1 74
+ 8.170237 1 0 sctp 48 ------- 0 2.0 0.0 -1 74
- 8.170237 1 0 sctp 48 ------- 0 2.0 0.0 -1 74
r 8.180637 1 2 sctp 1500 ------- 1 0.0 2.0 -1 40
r 8.250275 1 0 sctp 48 ------- 0 2.0 0.0 -1 74
+ 8.250275 0 1 sctp 1500 ------- 1 0.0 2.0 -1 75
- 8.250275 0 1 sctp 1500 ------- 1 0.0 2.0 -1 75
+ 8.250275 0 1 sctp 1500 ------- 1 0.0 2.0 -1 76
- 8.251475 0 1 sctp 1500 ------- 1 0.0 2.0 -1 76
r 8.331475 0 1 sctp 1500 ------- 1 0.0 2.0 -1 75
+ 8.331475 1 2 sctp 1500 ------- 1 0.0 2.0 -1 75
r 8.332675 0 1 sctp 1500 ------- 1 0.0 2.0 -1 76
+ 8.332675 1 2 sctp 1500 ------- 1 0.0 2.0 -1 76
+ 8.380637 2 1 sctp 48 ------- 0 2.0 0.0 -1 77
- 8.380637 2 1 sctp 48 ------- 0 2.0 0.0 -1 77
- 8.400637 1 2 sctp 1500 ------- 1 0.0 2.0 -1 43
r 8.470237 2 1 sctp 48 ------- 0 2.0 0.0 -1 77
+ 8.470237 1 0 sctp 48 ------- 0 2.0 0.0 -1 77
- 8.470237 1 0 sctp 48 ------- 0 2.0 0.0 -1 77
r 8.480637 1 2 sctp 1500 ------- 1 0.0 2.0 -1 42
r 8.550275 1 0 sctp 48 ------- 0 2.0 0.0 -1 77
+ 8.550275 0 1 sctp 1500 ------- 1 0.0 2.0 -1 78
- 8.550275 0 1 sctp 1500 ------- 1 0.0 2.0 -1 78
+ 8.550275 0 1 sctp 1500 ------- 1 0.0 2.0 -1 79
- 8.551475 0 1 sctp 1500 ------- 1 0.0 2.0 -1 79
r 8.631475 0 1 sctp 1500 ------- 1 0.0 2.0 -1 78
+ 8.631475 1 2 sctp 1500 ------- 1 0.0 2.0 -1 78
r 8.632675 0 1 sctp 1500 ------- 1 0.0 2.0 -1 79
+ 8.632675 1 2 sctp 1500 ------- 1 0.0 2.0 -1 79
+ 8.680637 2 1 sctp 48 ------- 0 2.0 0.0 -1 80
- 8.680637 2 1 sctp 48 ------- 0 2.0 0.0 -1 80
- 8.700637 1 2 sctp 1500 ------- 1 0.0 2.0 -1 45
r 8.770237 2 1 sctp 48 ------- 0 2.0 0.0 -1 80
+ 8.770237 1 0 sctp 48 ------- 0 2.0 0.0 -1 80
- 8.770237 1 0 sctp 48 ------- 0 2.0 0.0 -1 80
r 8.780637 1 2 sctp 1500 ------- 1 0.0 2.0 -1 43
r 8.850275 1 0 sctp 48 ------- 0 2.0 0.0 -1 80
+ 8.850275 0 1 sctp 1500 ------- 1 0.0 2.0 -1 81
- 8.850275 0 1 sctp 1500 ------- 1 0.0 2.0 -1 81
+ 8.850275 0 1 sctp 1500 ------- 1 0.0 2.0 -1 82
- 8.851475 0 1 sctp 1500 ------- 1 0.0 2.0 -1 82
r 8.931475 0 1 sctp 1500 ------- 1 0.0 2.0 -1 81
+ 8.931475 1 2 sctp 1500 ------- 1 0.0 2.0 -1 81
r 8.932675 0 1 sctp 1500 ------- 1 0.0 2.0 -1 82
+ 8.932675 1 2 sctp 1500 ------- 1 0.0 2.0 -1 82
+ 8.980637 2 1 sctp 48 ------- 0 2.0 0.0 -1 83
- 8.980637 2 1 sctp 48 ------- 0 2.0 0.0 -1 83
- 9.000637 1 2 sctp 1500 ------- 1 0.0 2.0 -1 46
r 9.070237 2 1 sctp 48 ------- 0 2.0 0.0 -1 83
+ 9.070237 1 0 sctp 48 ------- 0 2.0 0.0 -1 83
- 9.070237 1 0 sctp 48 ------- 0 2.0 0.0 -1 83
r 9.080637 1 2 sctp 1500 ------- 1 0.0 2.0 -1 45
r 9.150275 1 0 sctp 48 ------- 0 2.0 0.0 -1 83
+ 9.150275 0 1 sctp 1500 ------- 1 0.0 2.0 -1 84
- 9.150275 0 1 sctp 1500 ------- 1 0.0 2.0 -1 84
+ 9.150275 0 1 sctp 1500 ------- 1 0.0 2.0 -1 85
- 9.151475 0 1 sctp 1500 ------- 1 0.0 2.0 -1 85
r 9.231475 0 1 sctp 1500 ------- 1 0.0 2.0 -1 84
+ 9.231475 1 2 sctp 1500 ------- 1 0.0 2.0 -1 84
r 9.232675 0 1 sctp 1500 ------- 1 0.0 2.0 -1 85
+ 9.232675 1 2 sctp 1500 ------- 1 0.0 2.0 -1 85
+ 9.280637 2 1 sctp 48 ------- 0 2.0 0.0 -1 86
- 9.280637 2 1 sctp 48 ------- 0 2.0 0.0 -1 86
- 9.300637 1 2 sctp 1500 ------- 1 0.0 2.0 -1 48
r 9.370237 2 1 sctp 48 ------- 0 2.0 0.0 -1 86
+ 9.370237 1 0 sctp 48 ------- 0 2.0 0.0 -1 86
- 9.370237 1 0 sctp 48 ------- 0 2.0 0.0 -1 86
r 9.380637 1 2 sctp 1500 ------- 1 0.0 2.0 -1 46
r 9.450275 1 0 sctp 48 ------- 0 2.0 0.0 -1 86
+ 9.450275 0 1 sctp 1500 ------- 1 0.0 2.0 -1 87
- 9.450275 0 1 sctp 1500 ------- 1 0.0 2.0 -1 87
+ 9.450275 0 1 sctp 1500 ------- 1 0.0 2.0 -1 88
- 9.451475 0 1 sctp 1500 ------- 1 0.0 2.0 -1 88
r 9.531475 0 1 sctp 1500 ------- 1 0.0 2.0 -1 87
+ 9.531475 1 2 sctp 1500 ------- 1 0.0 2.0 -1 87
r 9.532675 0 1 sctp 1500 ------- 1 0.0 2.0 -1 88
+ 9.532675 1 2 sctp 1500 ------- 1 0.0 2.0 -1 88
+ 9.580637 2 1 sctp 48 ------- 0 2.0 0.0 -1 89
- 9.580637 2 1 sctp 48 ------- 0 2.0 0.0 -1 89
- 9.600637 1 2 sctp 1500 ------- 1 0.0 2.0 -1 49
r 9.670237 2 1 sctp 48 ------- 0 2.0 0.0 -1 89
+ 9.670237 1 0 sctp 48 ------- 0 2.0 0.0 -1 89
- 9.670237 1 0 sctp 48 ------- 0 2.0 0.0 -1 89
r 9.680637 1 2 sctp 1500 ------- 1 0.0 2.0 -1 48
r 9.750275 1 0 sctp 48 ------- 0 2.0 0.0 -1 89
+ 9.750275 0 1 sctp 1500 ------- 1 0.0 2.0 -1 90
- 9.750275 0 1 sctp 1500 ------- 1 0.0 2.0 -1 90
+ 9.750275 0 1 sctp 1500 ------- 1 0.0 2.0 -1 91
- 9.751475 0 1 sctp 1500 ------- 1 0.0 2.0 -1 91
r 9.831475 0 1 sctp 1500 ------- 1 0.0 2.0 -1 90
+ 9.831475 1 2 sctp 1500 ------- 1 0.0 2.0 -1 90
r 9.832675 0 1 sctp 1500 ------- 1 0.0 2.0 -1 91
+ 9.832675 1 2 sctp 1500 ------- 1 0.0 2.0 -1 91
+ 9.880637 2 1 sctp 48 ------- 0 2.0 0.0 -1 92
- 9.880637 2 1 sctp 48 ------- 0 2.0 0.0 -1 92
- 9.900637 1 2 sctp 1500 ------- 1 0.0 2.0 -1 51
r 9.970237 2 1 sctp 48 ------- 0 2.0 0.0 -1 92
+ 9.970237 1 0 sctp 48 ------- 0 2.0 0.0 -1 92
- 9.970237 1 0 sctp 48 ------- 0 2.0 0.0 -1 92
r 9.980637 1 2 sctp 1500 ------- 1 0.0 2.0 -1 49
r 10.050275 1 0 sctp 48 ------- 0 2.0 0.0 -1 92
+ 10.050275 0 1 sctp 1500 ------- 1 0.0 2.0 -1 93
- 10.050275 0 1 sctp 1500 ------- 1 0.0 2.0 -1 93
+ 10.050275 0 1 sctp 1500 ------- 1 0.0 2.0 -1 94
- 10.051475 0 1 sctp 1500 ------- 1 0.0 2.0 -1 94
r 10.131475 0 1 sctp 1500 ------- 1 0.0 2.0 -1 93
+ 10.131475 1 2 sctp 1500 ------- 1 0.0 2.0 -1 93
r 10.132675 0 1 sctp 1500 ------- 1 0.0 2.0 -1 94
+ 10.132675 1 2 sctp 1500 ------- 1 0.0 2.0 -1 94
+ 10.180637 2 1 sctp 48 ------- 0 2.0 0.0 -1 95
- 10.180637 2 1 sctp 48 ------- 0 2.0 0.0 -1 95
- 10.200637 1 2 sctp 1500 ------- 1 0.0 2.0 -1 52
r 10.270237 2 1 sctp 48 ------- 0 2.0 0.0 -1 95
+ 10.270237 1 0 sctp 48 ------- 0 2.0 0.0 -1 95
- 10.270237 1 0 sctp 48 ------- 0 2.0 0.0 -1 95
r 10.280637 1 2 sctp 1500 ------- 1 0.0 2.0 -1 51
r 10.350275 1 0 sctp 48 ------- 0 2.0 0.0 -1 95
+ 10.350275 0 1 sctp 1500 ------- 1 0.0 2.0 -1 96
- 10.350275 0 1 sctp 1500 ------- 1 0.0 2.0 -1 96
+ 10.350275 0 1 sctp 1500 ------- 1 0.0 2.0 -1 97
- 10.351475 0 1 sctp 1500 ------- 1 0.0 2.0 -1 97
r 10.431475 0 1 sctp 1500 ------- 1 0.0 2.0 -1 96
+ 10.431475 1 2 sctp 1500 ------- 1 0.0 2.0 -1 96
r 10.432675 0 1 sctp 1500 ------- 1 0.0 2.0 -1 97
+ 10.432675 1 2 sctp 1500 ------- 1 0.0 2.0 -1 97
+ 10.480637 2 1 sctp 48 ------- 0 2.0 0.0 -1 98
- 10.480637 2 1 sctp 48 ------- 0 2.0 0.0 -1 98
- 10.500637 1 2 sctp 1500 ------- 1 0.0 2.0 -1 54
r 10.570237 2 1 sctp 48 ------- 0 2.0 0.0 -1 98
+ 10.570237 1 0 sctp 48 ------- 0 2.0 0.0 -1 98
- 10.570237 1 0 sctp 48 ------- 0 2.0 0.0 -1 98
r 10.580637 1 2 sctp 1500 ------- 1 0.0 2.0 -1 52
r 10.650275 1 0 sctp 48 ------- 0 2.0 0.0 -1 98
+ 10.650275 0 1 sctp 1500 ------- 1 0.0 2.0 -1 99
- 10.650275 0 1 sctp 1500 ------- 1 0.0 2.0 -1 99
+ 10.650275 0 1 sctp 1500 ------- 1 0.0 2.0 -1 100
- 10.651475 0 1 sctp 1500 ------- 1 0.0 2.0 -1 100
r 10.731475 0 1 sctp 1500 ------- 1 0.0 2.0 -1 99
+ 10.731475 1 2 sctp 1500 ------- 1 0.0 2.0 -1 99
r 10.732675 0 1 sctp 1500 ------- 1 0.0 2.0 -1 100
+ 10.732675 1 2 sctp 1500 ------- 1 0.0 2.0 -1 100
+ 10.780637 2 1 sctp 48 ------- 0 2.0 0.0 -1 101
- 10.780637 2 1 sctp 48 ------- 0 2.0 0.0 -1 101
- 10.800637 1 2 sctp 1500 ------- 1 0.0 2.0 -1 55
r 10.870237 2 1 sctp 48 ------- 0 2.0 0.0 -1 101
+ 10.870237 1 0 sctp 48 ------- 0 2.0 0.0 -1 101
- 10.870237 1 0 sctp 48 ------- 0 2.0 0.0 -1 101
r 10.880637 1 2 sctp 1500 ------- 1 0.0 2.0 -1 54
r 10.950275 1 0 sctp 48 ------- 0 2.0 0.0 -1 101
+ 10.950275 0 1 sctp 1500 ------- 1 0.0 2.0 -1 102
- 10.950275 0 1 sctp 1500 ------- 1 0.0 2.0 -1 102
+ 10.950275 0 1 sctp 1500 ------- 1 0.0 2.0 -1 103
- 10.951475 0 1 sctp 1500 ------- 1 0.0 2.0 -1 103
r 11.031475 0 1 sctp 1500 ------- 1 0.0 2.0 -1 102
+ 11.031475 1 2 sctp 1500 ------- 1 0.0 2.0 -1 102
r 11.032675 0 1 sctp 1500 ------- 1 0.0 2.0 -1 103
+ 11.032675 1 2 sctp 1500 ------- 1 0.0 2.0 -1 103
+ 11.080637 2 1 sctp 48 ------- 0 2.0 0.0 -1 104
- 11.080637 2 1 sctp 48 ------- 0 2.0 0.0 -1 104
- 11.100637 1 2 sctp 1500 ------- 1 0.0 2.0 -1 57
r 11.170237 2 1 sctp 48 ------- 0 2.0 0.0 -1 104
+ 11.170237 1 0 sctp 48 ------- 0 2.0 0.0 -1 104
- 11.170237 1 0 sctp 48 ------- 0 2.0 0.0 -1 104
r 11.180637 1 2 sctp 1500 ------- 1 0.0 2.0 -1 55
r 11.250275 1 0 sctp 48 ------- 0 2.0 0.0 -1 104
+ 11.250275 0 1 sctp 1500 ------- 1 0.0 2.0 -1 105
- 11.250275 0 1 sctp 1500 ------- 1 0.0 2.0 -1 105
+ 11.250275 0 1 sctp 1500 ------- 1 0.0 2.0 -1 106
- 11.251475 0 1 sctp 1500 ------- 1 0.0 2.0 -1 106
r 11.331475 0 1 sctp 1500 ------- 1 0.0 2.0 -1 105
+ 11.331475 1 2 sctp 1500 ------- 1 0.0 2.0 -1 105
r 11.332675 0 1 sctp 1500 ------- 1 0.0 2.0 -1 106
+ 11.332675 1 2 sctp 1500 ------- 1 0.0 2.0 -1 106
+ 11.380637 2 1 sctp 48 ------- 0 2.0 0.0 -1 107
- 11.380637 2 1 sctp 48 ------- 0 2.0 0.0 -1 107
- 11.400637 1 2 sctp 1500 ------- 1 0.0 2.0 -1 58
r 11.470237 2 1 sctp 48 ------- 0 2.0 0.0 -1 107
+ 11.470237 1 0 sctp 48 ------- 0 2.0 0.0 -1 107
- 11.470237 1 0 sctp 48 ------- 0 2.0 0.0 -1 107
r 11.480637 1 2 sctp 1500 ------- 1 0.0 2.0 -1 57
r 11.550275 1 0 sctp 48 ------- 0 2.0 0.0 -1 107
+ 11.550275 0 1 sctp 1500 ------- 1 0.0 2.0 -1 108
- 11.550275 0 1 sctp 1500 ------- 1 0.0 2.0 -1 108
+ 11.550275 0 1 sctp 1500 ------- 1 0.0 2.0 -1 109
- 11.551475 0 1 sctp 1500 ------- 1 0.0 2.0 -1 109
r 11.631475 0 1 sctp 1500 ------- 1 0.0 2.0 -1 108
+ 11.631475 1 2 sctp 1500 ------- 1 0.0 2.0 -1 108
r 11.632675 0 1 sctp 1500 ------- 1 0.0 2.0 -1 109
+ 11.632675 1 2 sctp 1500 ------- 1 0.0 2.0 -1 109
+ 11.680637 2 1 sctp 48 ------- 0 2.0 0.0 -1 110
- 11.680637 2 1 sctp 48 ------- 0 2.0 0.0 -1 110
- 11.700637 1 2 sctp 1500 ------- 1 0.0 2.0 -1 60
r 11.770237 2 1 sctp 48 ------- 0 2.0 0.0 -1 110
+ 11.770237 1 0 sctp 48 ------- 0 2.0 0.0 -1 110
- 11.770237 1 0 sctp 48 ------- 0 2.0 0.0 -1 110
r 11.780637 1 2 sctp 1500 ------- 1 0.0 2.0 -1 58
r 11.850275 1 0 sctp 48 ------- 0 2.0 0.0 -1 110
+ 11.850275 0 1 sctp 1500 ------- 1 0.0 2.0 -1 111
- 11.850275 0 1 sctp 1500 ------- 1 0.0 2.0 -1 111
+ 11.850275 0 1 sctp 808 ------- 1 0.0 2.0 -1 112
+ 11.850275 0 1 sctp 1500 ------- 1 0.0 2.0 -1 113
- 11.851475 0 1 sctp 808 ------- 1 0.0 2.0 -1 112
- 11.852122 0 1 sctp 1500 ------- 1 0.0 2.0 -1 113
r 11.931475 0 1 sctp 1500 ------- 1 0.0 2.0 -1 111
+ 11.931475 1 2 sctp 1500 ------- 1 0.0 2.0 -1 111
r 11.932122 0 1 sctp 808 ------- 1 0.0 2.0 -1 112
+ 11.932122 1 2 sctp 808 ------- 1 0.0 2.0 -1 112
r 11.933322 0 1 sctp 1500 ------- 1 0.0 2.0 -1 113
+ 11.933322 1 2 sctp 1500 ------- 1 0.0 2.0 -1 113
+ 11.980637 2 1 sctp 48 ------- 0 2.0 0.0 -1 114
- 11.980637 2 1 sctp 48 ------- 0 2.0 0.0 -1 114
- 12.000637 1 2 sctp 1500 ------- 1 0.0 2.0 -1 61
r 12.070237 2 1 sctp 48 ------- 0 2.0 0.0 -1 114
+ 12.070237 1 0 sctp 48 ------- 0 2.0 0.0 -1 114
- 12.070237 1 0 sctp 48 ------- 0 2.0 0.0 -1 114
r 12.080637 1 2 sctp 1500 ------- 1 0.0 2.0 -1 60
r 12.150275 1 0 sctp 48 ------- 0 2.0 0.0 -1 114
+ 12.150275 0 1 sctp 1500 ------- 1 0.0 2.0 -1 115
- 12.150275 0 1 sctp 1500 ------- 1 0.0 2.0 -1 115
+ 12.150275 0 1 sctp 1500 ------- 1 0.0 2.0 -1 116
- 12.151475 0 1 sctp 1500 ------- 1 0.0 2.0 -1 116
r 12.231475 0 1 sctp 1500 ------- 1 0.0 2.0 -1 115
+ 12.231475 1 2 sctp 1500 ------- 1 0.0 2.0 -1 115
r 12.232675 0 1 sctp 1500 ------- 1 0.0 2.0 -1 116
+ 12.232675 1 2 sctp 1500 ------- 1 0.0 2.0 -1 116
+ 12.280637 2 1 sctp 48 ------- 0 2.0 0.0 -1 117
- 12.280637 2 1 sctp 48 ------- 0 2.0 0.0 -1 117
- 12.300637 1 2 sctp 1500 ------- 1 0.0 2.0 -1 63
r 12.370237 2 1 sctp 48 ------- 0 2.0 0.0 -1 117