+ 0.1 0 1 sctp 56 ------- 1 0.0 2.0 -1 2
- 0.1 0 1 sctp 56 ------- 1 0.0 2.0 -1 2
r 0.180045 0 1 sctp 56 ------- 1 0.0 2.0 -1 2
+ 0.180045 1 2 sctp 56 ------- 1 0.0 2.0 -1 2
- 0.180045 1 2 sctp 56 ------- 1 0.0 2.0 -1 2
r 0.260194 1 2 sctp 56 ------- 1 0.0 2.0 -1 2
+ 0.260194 2 1 sctp 56 ------- 0 2.0 0.0 -1 3
- 0.260194 2 1 sctp 56 ------- 0 2.0 0.0 -1 3
r 0.340343 2 1 sctp 56 ------- 0 2.0 0.0 -1 3
+ 0.340343 1 0 sctp 56 ------- 0 2.0 0.0 -1 3
- 0.340343 1 0 sctp 56 ------- 0 2.0 0.0 -1 3
r 0.420388 1 0 sctp 56 ------- 0 2.0 0.0 -1 3
+ 0.420388 0 1 sctp 36 ------- 1 0.0 2.0 -1 4
- 0.420388 0 1 sctp 36 ------- 1 0.0 2.0 -1 4
r 0.500417 0 1 sctp 36 ------- 1 0.0 2.0 -1 4
+ 0.500417 1 2 sctp 36 ------- 1 0.0 2.0 -1 4
- 0.500417 1 2 sctp 36 ------- 1 0.0 2.0 -1 4
r 0.580513 1 2 sctp 36 ------- 1 0.0 2.0 -1 4
+ 0.580513 2 1 sctp 36 ------- 0 2.0 0.0 -1 5
- 0.580513 2 1 sctp 36 ------- 0 2.0 0.0 -1 5
r 0.660609 2 1 sctp 36 ------- 0 2.0 0.0 -1 5
+ 0.660609 1 0 sctp 36 ------- 0 2.0 0.0 -1 5
- 0.660609 1 0 sctp 36 ------- 0 2.0 0.0 -1 5
r 0.740638 1 0 sctp 36 ------- 0 2.0 0.0 -1 5
+ 0.740638 0 1 sctp 56 ------- 1 0.0 2.0 -1 6
- 0.740638 0 1 sctp 56 ------- 1 0.0 2.0 -1 6
r 0.820683 0 1 sctp 56 ------- 1 0.0 2.0 -1 6
+ 0.820683 1 2 sctp 56 ------- 1 0.0 2.0 -1 6
- 0.820683 1 2 sctp 56 ------- 1 0.0 2.0 -1 6
r 0.900832 1 2 sctp 56 ------- 1 0.0 2.0 -1 6
+ 0.900832 2 1 sctp 56 ------- 0 2.0 0.0 -1 7
- 0.900832 2 1 sctp 56 ------- 0 2.0 0.0 -1 7
r 0.980981 2 1 sctp 56 ------- 0 2.0 0.0 -1 7
+ 0.980981 1 0 sctp 56 ------- 0 2.0 0.0 -1 7
- 0.980981 1 0 sctp 56 ------- 0 2.0 0.0 -1 7
r 1.061026 1 0 sctp 56 ------- 0 2.0 0.0 -1 7
+ 1.061026 0 1 sctp 1500 ------- 1 0.0 2.0 -1 8
- 1.061026 0 1 sctp 1500 ------- 1 0.0 2.0 -1 8
+ 1.061026 0 1 sctp 1500 ------- 1 0.0 2.0 -1 9
+ 1.061026 0 1 sctp 1500 ------- 1 0.0 2.0 -1 10
- 1.062226 0 1 sctp 1500 ------- 1 0.0 2.0 -1 9
- 1.063426 0 1 sctp 1500 ------- 1 0.0 2.0 -1 10
r 1.142226 0 1 sctp 1500 ------- 1 0.0 2.0 -1 8
+ 1.142226 1 2 sctp 1500 ------- 1 0.0 2.0 -1 8
- 1.142226 1 2 sctp 1500 ------- 1 0.0 2.0 -1 8
r 1.143426 0 1 sctp 1500 ------- 1 0.0 2.0 -1 9
+ 1.143426 1 2 sctp 1500 ------- 1 0.0 2.0 -1 9
r 1.144626 0 1 sctp 1500 ------- 1 0.0 2.0 -1 10
+ 1.144626 1 2 sctp 1500 ------- 1 0.0 2.0 -1 10
- 1.146226 1 2 sctp 1500 ------- 1 0.0 2.0 -1 9
- 1.150226 1 2 sctp 1500 ------- 1 0.0 2.0 -1 10
r 1.226226 1 2 sctp 1500 ------- 1 0.0 2.0 -1 8
+ 1.226226 2 1 sctp 48 ------- 0 2.0 0.0 -1 11
- 1.226226 2 1 sctp 48 ------- 0 2.0 0.0 -1 11
r 1.230226 1 2 sctp 1500 ------- 1 0.0 2.0 -1 9
r 1.234226 1 2 sctp 1500 ------- 1 0.0 2.0 -1 10
+ 1.234226 2 1 sctp 48 ------- 0 2.0 0.0 -1 12
- 1.234226 2 1 sctp 48 ------- 0 2.0 0.0 -1 12
r 1.306354 2 1 sctp 48 ------- 0 2.0 0.0 -1 11
+ 1.306354 1 0 sctp 48 ------- 0 2.0 0.0 -1 11
- 1.306354 1 0 sctp 48 ------- 0 2.0 0.0 -1 11
r 1.314354 2 1 sctp 48 ------- 0 2.0 0.0 -1 12
+ 1.314354 1 0 sctp 48 ------- 0 2.0 0.0 -1 12
- 1.314354 1 0 sctp 48 ------- 0 2.0 0.0 -1 12
r 1.386393 1 0 sctp 48 ------- 0 2.0 0.0 -1 11
+ 1.386393 0 1 sctp 1500 ------- 1 0.0 2.0 -1 13
- 1.386393 0 1 sctp 1500 ------- 1 0.0 2.0 -1 13
+ 1.386393 0 1 sctp 1500 ------- 1 0.0 2.0 -1 14
- 1.387593 0 1 sctp 1500 ------- 1 0.0 2.0 -1 14
r 1.394393 1 0 sctp 48 ------- 0 2.0 0.0 -1 12
+ 1.394393 0 1 sctp 1500 ------- 1 0.0 2.0 -1 15
- 1.394393 0 1 sctp 1500 ------- 1 0.0 2.0 -1 15
+ 1.394393 0 1 sctp 1500 ------- 1 0.0 2.0 -1 16
+ 1.394393 0 1 sctp 1500 ------- 1 0.0 2.0 -1 17
- 1.395593 0 1 sctp 1500 ------- 1 0.0 2.0 -1 16
- 1.396793 0 1 sctp 1500 ------- 1 0.0 2.0 -1 17
r 1.467593 0 1 sctp 1500 ------- 1 0.0 2.0 -1 13
+ 1.467593 1 2 sctp 1500 ------- 1 0.0 2.0 -1 13
- 1.467593 1 2 sctp 1500 ------- 1 0.0 2.0 -1 13
r 1.468793 0 1 sctp 1500 ------- 1 0.0 2.0 -1 14
+ 1.468793 1 2 sctp 1500 ------- 1 0.0 2.0 -1 14
- 1.471593 1 2 sctp 1500 ------- 1 0.0 2.0 -1 14
r 1.475593 0 1 sctp 1500 ------- 1 0.0 2.0 -1 15
+ 1.475593 1 2 sctp 1500 ------- 1 0.0 2.0 -1 15
- 1.475593 1 2 sctp 1500 ------- 1 0.0 2.0 -1 15
r 1.476793 0 1 sctp 1500 ------- 1 0.0 2.0 -1 16
+ 1.476793 1 2 sctp 1500 ------- 1 0.0 2.0 -1 16
r 1.477993 0 1 sctp 1500 ------- 1 0.0 2.0 -1 17
+ 1.477993 1 2 sctp 1500 ------- 1 0.0 2.0 -1 17
- 1.479593 1 2 sctp 1500 ------- 1 0.0 2.0 -1 16
- 1.483593 1 2 sctp 1500 ------- 1 0.0 2.0 -1 17
r 1.551593 1 2 sctp 1500 ------- 1 0.0 2.0 -1 13
r 1.555593 1 2 sctp 1500 ------- 1 0.0 2.0 -1 14
+ 1.555593 2 1 sctp 48 ------- 0 2.0 0.0 -1 18
- 1.555593 2 1 sctp 48 ------- 0 2.0 0.0 -1 18
r 1.559593 1 2 sctp 1500 ------- 1 0.0 2.0 -1 15
r 1.563593 1 2 sctp 1500 ------- 1 0.0 2.0 -1 16
+ 1.563593 2 1 sctp 48 ------- 0 2.0 0.0 -1 19
- 1.563593 2 1 sctp 48 ------- 0 2.0 0.0 -1 19
r 1.567593 1 2 sctp 1500 ------- 1 0.0 2.0 -1 17
r 1.635721 2 1 sctp 48 ------- 0 2.0 0.0 -1 18
+ 1.635721 1 0 sctp 48 ------- 0 2.0 0.0 -1 18
- 1.635721 1 0 sctp 48 ------- 0 2.0 0.0 -1 18
r 1.643721 2 1 sctp 48 ------- 0 2.0 0.0 -1 19
+ 1.643721 1 0 sctp 48 ------- 0 2.0 0.0 -1 19
- 1.643721 1 0 sctp 48 ------- 0 2.0 0.0 -1 19
r 1.715759 1 0 sctp 48 ------- 0 2.0 0.0 -1 18
+ 1.715759 0 1 sctp 1500 ------- 1 0.0 2.0 -1 20
- 1.715759 0 1 sctp 1500 ------- 1 0.0 2.0 -1 20
+ 1.715759 0 1 sctp 1500 ------- 1 0.0 2.0 -1 21
+ 1.715759 0 1 sctp 1500 ------- 1 0.0 2.0 -1 22
- 1.716959 0 1 sctp 1500 ------- 1 0.0 2.0 -1 21
- 1.718159 0 1 sctp 1500 ------- 1 0.0 2.0 -1 22
r 1.723759 1 0 sctp 48 ------- 0 2.0 0.0 -1 19
+ 1.723759 0 1 sctp 1500 ------- 1 0.0 2.0 -1 23
- 1.723759 0 1 sctp 1500 ------- 1 0.0 2.0 -1 23
+ 1.723759 0 1 sctp 1500 ------- 1 0.0 2.0 -1 24
+ 1.723759 0 1 sctp 1500 ------- 1 0.0 2.0 -1 25
- 1.724959 0 1 sctp 1500 ------- 1 0.0 2.0 -1 24
- 1.726159 0 1 sctp 1500 ------- 1 0.0 2.0 -1 25
+ 1.767593 2 1 sctp 48 ------- 0 2.0 0.0 -1 26
- 1.767593 2 1 sctp 48 ------- 0 2.0 0.0 -1 26
r 1.796959 0 1 sctp 1500 ------- 1 0.0 2.0 -1 20
+ 1.796959 1 2 sctp 1500 ------- 1 0.0 2.0 -1 20
- 1.796959 1 2 sctp 1500 ------- 1 0.0 2.0 -1 20
r 1.798159 0 1 sctp 1500 ------- 1 0.0 2.0 -1 21
+ 1.798159 1 2 sctp 1500 ------- 1 0.0 2.0 -1 21
r 1.799359 0 1 sctp 1500 ------- 1 0.0 2.0 -1 22
+ 1.799359 1 2 sctp 1500 ------- 1 0.0 2.0 -1 22
- 1.800959 1 2 sctp 1500 ------- 1 0.0 2.0 -1 21
r 1.804959 0 1 sctp 1500 ------- 1 0.0 2.0 -1 23
+ 1.804959 1 2 sctp 1500 ------- 1 0.0 2.0 -1 23
- 1.804959 1 2 sctp 1500 ------- 1 0.0 2.0 -1 22
r 1.806159 0 1 sctp 1500 ------- 1 0.0 2.0 -1 24
+ 1.806159 1 2 sctp 1500 ------- 1 0.0 2.0 -1 24
r 1.807359 0 1 sctp 1500 ------- 1 0.0 2.0 -1 25
+ 1.807359 1 2 sctp 1500 ------- 1 0.0 2.0 -1 25
- 1.808959 1 2 sctp 1500 ------- 1 0.0 2.0 -1 23
- 1.812959 1 2 sctp 1500 ------- 1 0.0 2.0 -1 24
- 1.816959 1 2 sctp 1500 ------- 1 0.0 2.0 -1 25
r 1.847721 2 1 sctp 48 ------- 0 2.0 0.0 -1 26
+ 1.847721 1 0 sctp 48 ------- 0 2.0 0.0 -1 26
- 1.847721 1 0 sctp 48 ------- 0 2.0 0.0 -1 26
r 1.880959 1 2 sctp 1500 ------- 1 0.0 2.0 -1 20
r 1.884959 1 2 sctp 1500 ------- 1 0.0 2.0 -1 21
+ 1.884959 2 1 sctp 48 ------- 0 2.0 0.0 -1 27
- 1.884959 2 1 sctp 48 ------- 0 2.0 0.0 -1 27
r 1.888959 1 2 sctp 1500 ------- 1 0.0 2.0 -1 22
r 1.892959 1 2 sctp 1500 ------- 1 0.0 2.0 -1 23
+ 1.892959 2 1 sctp 48 ------- 0 2.0 0.0 -1 28
- 1.892959 2 1 sctp 48 ------- 0 2.0 0.0 -1 28
r 1.896959 1 2 sctp 1500 ------- 1 0.0 2.0 -1 24
r 1.900959 1 2 sctp 1500 ------- 1 0.0 2.0 -1 25
+ 1.900959 2 1 sctp 48 ------- 0 2.0 0.0 -1 29
- 1.900959 2 1 sctp 48 ------- 0 2.0 0.0 -1 29
r 1.927759 1 0 sctp 48 ------- 0 2.0 0.0 -1 26
+ 1.927759 0 1 sctp 1500 ------- 1 0.0 2.0 -1 30
- 1.927759 0 1 sctp 1500 ------- 1 0.0 2.0 -1 30
+ 1.927759 0 1 sctp 1500 ------- 1 0.0 2.0 -1 31
- 1.928959 0 1 sctp 1500 ------- 1 0.0 2.0 -1 31
r 1.965087 2 1 sctp 48 ------- 0 2.0 0.0 -1 27
+ 1.965087 1 0 sctp 48 ------- 0 2.0 0.0 -1 27
- 1.965087 1 0 sctp 48 ------- 0 2.0 0.0 -1 27
r 1.973087 2 1 sctp 48 ------- 0 2.0 0.0 -1 28
+ 1.973087 1 0 sctp 48 ------- 0 2.0 0.0 -1 28
- 1.973087 1 0 sctp 48 ------- 0 2.0 0.0 -1 28
r 1.981087 2 1 sctp 48 ------- 0 2.0 0.0 -1 29
+ 1.981087 1 0 sctp 48 ------- 0 2.0 0.0 -1 29
- 1.981087 1 0 sctp 48 ------- 0 2.0 0.0 -1 29
r 2.008959 0 1 sctp 1500 ------- 1 0.0 2.0 -1 30
+ 2.008959 1 2 sctp 1500 ------- 1 0.0 2.0 -1 30
- 2.008959 1 2 sctp 1500 ------- 1 0.0 2.0 -1 30
r 2.010159 0 1 sctp 1500 ------- 1 0.0 2.0 -1 31
+ 2.010159 1 2 sctp 1500 ------- 1 0.0 2.0 -1 31
- 2.012959 1 2 sctp 1500 ------- 1 0.0 2.0 -1 31
r 2.045125 1 0 sctp 48 ------- 0 2.0 0.0 -1 27
+ 2.045125 0 1 sctp 1500 ------- 1 0.0 2.0 -1 32
- 2.045125 0 1 sctp 1500 ------- 1 0.0 2.0 -1 32
+ 2.045125 0 1 sctp 1500 ------- 1 0.0 2.0 -1 33
+ 2.045125 0 1 sctp 1500 ------- 1 0.0 2.0 -1 34
- 2.046325 0 1 sctp 1500 ------- 1 0.0 2.0 -1 33
- 2.047525 0 1 sctp 1500 ------- 1 0.0 2.0 -1 34
r 2.053125 1 0 sctp 48 ------- 0 2.0 0.0 -1 28
+ 2.053125 0 1 sctp 1500 ------- 1 0.0 2.0 -1 35
- 2.053125 0 1 sctp 1500 ------- 1 0.0 2.0 -1 35
+ 2.053125 0 1 sctp 1500 ------- 1 0.0 2.0 -1 36
+ 2.053125 0 1 sctp 1500 ------- 1 0.0 2.0 -1 37
- 2.054325 0 1 sctp 1500 ------- 1 0.0 2.0 -1 36
- 2.055525 0 1 sctp 1500 ------- 1 0.0 2.0 -1 37
r 2.061125 1 0 sctp 48 ------- 0 2.0 0.0 -1 29
+ 2.061125 0 1 sctp 1500 ------- 1 0.0 2.0 -1 38
- 2.061125 0 1 sctp 1500 ------- 1 0.0 2.0 -1 38
+ 2.061125 0 1 sctp 1500 ------- 1 0.0 2.0 -1 39
+ 2.061125 0 1 sctp 1500 ------- 1 0.0 2.0 -1 40
- 2.062325 0 1 sctp 1500 ------- 1 0.0 2.0 -1 39
- 2.063525 0 1 sctp 1500 ------- 1 0.0 2.0 -1 40
r 2.092959 1 2 sctp 1500 ------- 1 0.0 2.0 -1 30
r 2.096959 1 2 sctp 1500 ------- 1 0.0 2.0 -1 31
+ 2.096959 2 1 sctp 48 ------- 0 2.0 0.0 -1 41
- 2.096959 2 1 sctp 48 ------- 0 2.0 0.0 -1 41
r 2.126325 0 1 sctp 1500 ------- 1 0.0 2.0 -1 32
+ 2.126325 1 2 sctp 1500 ------- 1 0.0 2.0 -1 32
- 2.126325 1 2 sctp 1500 ------- 1 0.0 2.0 -1 32
r 2.127525 0 1 sctp 1500 ------- 1 0.0 2.0 -1 33
+ 2.127525 1 2 sctp 1500 ------- 1 0.0 2.0 -1 33
r 2.128725 0 1 sctp 1500 ------- 1 0.0 2.0 -1 34
+ 2.128725 1 2 sctp 1500 ------- 1 0.0 2.0 -1 34
- 2.130325 1 2 sctp 1500 ------- 1 0.0 2.0 -1 33
r 2.134325 0 1 sctp 1500 ------- 1 0.0 2.0 -1 35
+ 2.134325 1 2 sctp 1500 ------- 1 0.0 2.0 -1 35
- 2.134325 1 2 sctp 1500 ------- 1 0.0 2.0 -1 34
r 2.135525 0 1 sctp 1500 ------- 1 0.0 2.0 -1 36
+ 2.135525 1 2 sctp 1500 ------- 1 0.0 2.0 -1 36
r 2.136725 0 1 sctp 1500 ------- 1 0.0 2.0 -1 37
+ 2.136725 1 2 sctp 1500 ------- 1 0.0 2.0 -1 37
- 2.138325 1 2 sctp 1500 ------- 1 0.0 2.0 -1 35
r 2.142325 0 1 sctp 1500 ------- 1 0.0 2.0 -1 38
+ 2.142325 1 2 sctp 1500 ------- 1 0.0 2.0 -1 38
- 2.142325 1 2 sctp 1500 ------- 1 0.0 2.0 -1 36
r 2.143525 0 1 sctp 1500 ------- 1 0.0 2.0 -1 39
+ 2.143525 1 2 sctp 1500 ------- 1 0.0 2.0 -1 39
r 2.144725 0 1 sctp 1500 ------- 1 0.0 2.0 -1 40
+ 2.144725 1 2 sctp 1500 ------- 1 0.0 2.0 -1 40
- 2.146325 1 2 sctp 1500 ------- 1 0.0 2.0 -1 37
- 2.150325 1 2 sctp 1500 ------- 1 0.0 2.0 -1 38
- 2.154325 1 2 sctp 1500 ------- 1 0.0 2.0 -1 39
- 2.158325 1 2 sctp 1500 ------- 1 0.0 2.0 -1 40
r 2.177087 2 1 sctp 48 ------- 0 2.0 0.0 -1 41
+ 2.177087 1 0 sctp 48 ------- 0 2.0 0.0 -1 41
- 2.177087 1 0 sctp 48 ------- 0 2.0 0.0 -1 41
r 2.210325 1 2 sctp 1500 ------- 1 0.0 2.0 -1 32
r 2.214325 1 2 sctp 1500 ------- 1 0.0 2.0 -1 33
+ 2.214325 2 1 sctp 48 ------- 0 2.0 0.0 -1 42
- 2.214325 2 1 sctp 48 ------- 0 2.0 0.0 -1 42
r 2.218325 1 2 sctp 1500 ------- 1 0.0 2.0 -1 34
r 2.222325 1 2 sctp 1500 ------- 1 0.0 2.0 -1 35
+ 2.222325 2 1 sctp 48 ------- 0 2.0 0.0 -1 43
- 2.222325 2 1 sctp 48 ------- 0 2.0 0.0 -1 43
r 2.226325 1 2 sctp 1500 ------- 1 0.0 2.0 -1 36
r 2.230325 1 2 sctp 1500 ------- 1 0.0 2.0 -1 37
+ 2.230325 2 1 sctp 48 ------- 0 2.0 0.0 -1 44
- 2.230325 2 1 sctp 48 ------- 0 2.0 0.0 -1 44
r 2.234325 1 2 sctp 1500 ------- 1 0.0 2.0 -1 38
r 2.238325 1 2 sctp 1500 ------- 1 0.0 2.0 -1 39
+ 2.238325 2 1 sctp 48 ------- 0 2.0 0.0 -1 45
- 2.238325 2 1 sctp 48 ------- 0 2.0 0.0 -1 45
r 2.242325 1 2 sctp 1500 ------- 1 0.0 2.0 -1 40
r 2.257125 1 0 sctp 48 ------- 0 2.0 0.0 -1 41
+ 2.257125 0 1 sctp 1500 ------- 1 0.0 2.0 -1 46
- 2.257125 0 1 sctp 1500 ------- 1 0.0 2.0 -1 46
+ 2.257125 0 1 sctp 1500 ------- 1 0.0 2.0 -1 47
+ 2.257125 0 1 sctp 1500 ------- 1 0.0 2.0 -1 48
- 2.258325 0 1 sctp 1500 ------- 1 0.0 2.0 -1 47
- 2.259525 0 1 sctp 1500 ------- 1 0.0 2.0 -1 48
r 2.294453 2 1 sctp 48 ------- 0 2.0 0.0 -1 42
+ 2.294453 1 0 sctp 48 ------- 0 2.0 0.0 -1 42
- 2.294453 1 0 sctp 48 ------- 0 2.0 0.0 -1 42
r 2.302453 2 1 sctp 48 ------- 0 2.0 0.0 -1 43
+ 2.302453 1 0 sctp 48 ------- 0 2.0 0.0 -1 43
- 2.302453 1 0 sctp 48 ------- 0 2.0 0.0 -1 43
r 2.310453 2 1 sctp 48 ------- 0 2.0 0.0 -1 44
+ 2.310453 1 0 sctp 48 ------- 0 2.0 0.0 -1 44
- 2.310453 1 0 sctp 48 ------- 0 2.0 0.0 -1 44
r 2.318453 2 1 sctp 48 ------- 0 2.0 0.0 -1 45
+ 2.318453 1 0 sctp 48 ------- 0 2.0 0.0 -1 45
- 2.318453 1 0 sctp 48 ------- 0 2.0 0.0 -1 45
r 2.338325 0 1 sctp 1500 ------- 1 0.0 2.0 -1 46
+ 2.338325 1 2 sctp 1500 ------- 1 0.0 2.0 -1 46
- 2.338325 1 2 sctp 1500 ------- 1 0.0 2.0 -1 46
r 2.339525 0 1 sctp 1500 ------- 1 0.0 2.0 -1 47
+ 2.339525 1 2 sctp 1500 ------- 1 0.0 2.0 -1 47
r 2.340725 0 1 sctp 1500 ------- 1 0.0 2.0 -1 48
+ 2.340725 1 2 sctp 1500 ------- 1 0.0 2.0 -1 48
- 2.342325 1 2 sctp 1500 ------- 1 0.0 2.0 -1 47
- 2.346325 1 2 sctp 1500 ------- 1 0.0 2.0 -1 48
r 2.374492 1 0 sctp 48 ------- 0 2.0 0.0 -1 42
+ 2.374492 0 1 sctp 1500 ------- 1 0.0 2.0 -1 49
- 2.374492 0 1 sctp 1500 ------- 1 0.0 2.0 -1 49
+ 2.374492 0 1 sctp 1500 ------- 1 0.0 2.0 -1 50
+ 2.374492 0 1 sctp 1500 ------- 1 0.0 2.0 -1 51
- 2.375692 0 1 sctp 1500 ------- 1 0.0 2.0 -1 50
- 2.376892 0 1 sctp 1500 ------- 1 0.0 2.0 -1 51
r 2.382492 1 0 sctp 48 ------- 0 2.0 0.0 -1 43
+ 2.382492 0 1 sctp 1500 ------- 1 0.0 2.0 -1 52
- 2.382492 0 1 sctp 1500 ------- 1 0.0 2.0 -1 52
+ 2.382492 0 1 sctp 1500 ------- 1 0.0 2.0 -1 53
+ 2.382492 0 1 sctp 1500 ------- 1 0.0 2.0 -1 54
- 2.383692 0 1 sctp 1500 ------- 1 0.0 2.0 -1 53
- 2.384892 0 1 sctp 1500 ------- 1 0.0 2.0 -1 54
r 2.390492 1 0 sctp 48 ------- 0 2.0 0.0 -1 44
+ 2.390492 0 1 sctp 1500 ------- 1 0.0 2.0 -1 55
- 2.390492 0 1 sctp 1500 ------- 1 0.0 2.0 -1 55
+ 2.390492 0 1 sctp 1500 ------- 1 0.0 2.0 -1 56
+ 2.390492 0 1 sctp 1500 ------- 1 0.0 2.0 -1 57
- 2.391692 0 1 sctp 1500 ------- 1 0.0 2.0 -1 56
- 2.392892 0 1 sctp 1500 ------- 1 0.0 2.0 -1 57
r 2.398492 1 0 sctp 48 ------- 0 2.0 0.0 -1 45
+ 2.398492 0 1 sctp 1500 ------- 1 0.0 2.0 -1 58
- 2.398492 0 1 sctp 1500 ------- 1 0.0 2.0 -1 58
+ 2.398492 0 1 sctp 1500 ------- 1 0.0 2.0 -1 59
+ 2.398492 0 1 sctp 1500 ------- 1 0.0 2.0 -1 60
- 2.399692 0 1 sctp 1500 ------- 1 0.0 2.0 -1 59
- 2.400892 0 1 sctp 1500 ------- 1 0.0 2.0 -1 60
r 2.422325 1 2 sctp 1500 ------- 1 0.0 2.0 -1 46
+ 2.422325 2 1 sctp 48 ------- 0 2.0 0.0 -1 61
- 2.422325 2 1 sctp 48 ------- 0 2.0 0.0 -1 61
r 2.426325 1 2 sctp 1500 ------- 1 0.0 2.0 -1 47
r 2.430325 1 2 sctp 1500 ------- 1 0.0 2.0 -1 48
+ 2.430325 2 1 sctp 48 ------- 0 2.0 0.0 -1 62
- 2.430325 2 1 sctp 48 ------- 0 2.0 0.0 -1 62
r 2.455692 0 1 sctp 1500 ------- 1 0.0 2.0 -1 49
+ 2.455692 1 2 sctp 1500 ------- 1 0.0 2.0 -1 49
- 2.455692 1 2 sctp 1500 ------- 1 0.0 2.0 -1 49
r 2.456892 0 1 sctp 1500 ------- 1 0.0 2.0 -1 50
+ 2.456892 1 2 sctp 1500 ------- 1 0.0 2.0 -1 50
r 2.458092 0 1 sctp 1500 ------- 1 0.0 2.0 -1 51
+ 2.458092 1 2 sctp 1500 ------- 1 0.0 2.0 -1 51
- 2.459692 1 2 sctp 1500 ------- 1 0.0 2.0 -1 50
r 2.463692 0 1 sctp 1500 ------- 1 0.0 2.0 -1 52
+ 2.463692 1 2 sctp 1500 ------- 1 0.0 2.0 -1 52
- 2.463692 1 2 sctp 1500 ------- 1 0.0 2.0 -1 51
r 2.464892 0 1 sctp 1500 ------- 1 0.0 2.0 -1 53
+ 2.464892 1 2 sctp 1500 ------- 1 0.0 2.0 -1 53
r 2.466092 0 1 sctp 1500 ------- 1 0.0 2.0 -1 54
+ 2.466092 1 2 sctp 1500 ------- 1 0.0 2.0 -1 54
- 2.467692 1 2 sctp 1500 ------- 1 0.0 2.0 -1 52
r 2.471692 0 1 sctp 1500 ------- 1 0.0 2.0 -1 55
+ 2.471692 1 2 sctp 1500 ------- 1 0.0 2.0 -1 55
- 2.471692 1 2 sctp 1500 ------- 1 0.0 2.0 -1 53
r 2.472892 0 1 sctp 1500 ------- 1 0.0 2.0 -1 56
+ 2.472892 1 2 sctp 1500 ------- 1 0.0 2.0 -1 56
r 2.474092 0 1 sctp 1500 ------- 1 0.0 2.0 -1 57
+ 2.474092 1 2 sctp 1500 ------- 1 0.0 2.0 -1 57
- 2.475692 1 2 sctp 1500 ------- 1 0.0 2.0 -1 54
r 2.479692 0 1 sctp 1500 ------- 1 0.0 2.0 -1 58
+ 2.479692 1 2 sctp 1500 ------- 1 0.0 2.0 -1 58
- 2.479692 1 2 sctp 1500 ------- 1 0.0 2.0 -1 55
r 2.480892 0 1 sctp 1500 ------- 1 0.0 2.0 -1 59
+ 2.480892 1 2 sctp 1500 ------- 1 0.0 2.0 -1 59
r 2.482092 0 1 sctp 1500 ------- 1 0.0 2.0 -1 60
+ 2.482092 1 2 sctp 1500 ------- 1 0.0 2.0 -1 60
- 2.483692 1 2 sctp 1500 ------- 1 0.0 2.0 -1 56
- 2.487692 1 2 sctp 1500 ------- 1 0.0 2.0 -1 57
- 2.491692 1 2 sctp 1500 ------- 1 0.0 2.0 -1 58
- 2.495692 1 2 sctp 1500 ------- 1 0.0 2.0 -1 59
- 2.499692 1 2 sctp 1500 ------- 1 0.0 2.0 -1 60
r 2.502453 2 1 sctp 48 ------- 0 2.0 0.0 -1 61
+ 2.502453 1 0 sctp 48 ------- 0 2.0 0.0 -1 61
- 2.502453 1 0 sctp 48 ------- 0 2.0 0.0 -1 61
r 2.510453 2 1 sctp 48 ------- 0 2.0 0.0 -1 62
+ 2.510453 1 0 sctp 48 ------- 0 2.0 0.0 -1 62
- 2.510453 1 0 sctp 48 ------- 0 2.0 0.0 -1 62
r 2.539692 1 2 sctp 1500 ------- 1 0.0 2.0 -1 49
r 2.543692 1 2 sctp 1500 ------- 1 0.0 2.0 -1 50
+ 2.543692 2 1 sctp 48 ------- 0 2.0 0.0 -1 63
- 2.543692 2 1 sctp 48 ------- 0 2.0 0.0 -1 63
r 2.547692 1 2 sctp 1500 ------- 1 0.0 2.0 -1 51
r 2.551692 1 2 sctp 1500 ------- 1 0.0 2.0 -1 52
+ 2.551692 2 1 sctp 48 ------- 0 2.0 0.0 -1 64
- 2.551692 2 1 sctp 48 ------- 0 2.0 0.0 -1 64
r 2.555692 1 2 sctp 1500 ------- 1 0.0 2.0 -1 53
r 2.559692 1 2 sctp 1500 ------- 1 0.0 2.0 -1 54
+ 2.559692 2 1 sctp 48 ------- 0 2.0 0.0 -1 65
- 2.559692 2 1 sctp 48 ------- 0 2.0 0.0 -1 65
r 2.563692 1 2 sctp 1500 ------- 1 0.0 2.0 -1 55
r 2.567692 1 2 sctp 1500 ------- 1 0.0 2.0 -1 56
+ 2.567692 2 1 sctp 48 ------- 0 2.0 0.0 -1 66
- 2.567692 2 1 sctp 48 ------- 0 2.0 0.0 -1 66
r 2.571692 1 2 sctp 1500 ------- 1 0.0 2.0 -1 57
r 2.575692 1 2 sctp 1500 ------- 1 0.0 2.0 -1 58
+ 2.575692 2 1 sctp 48 ------- 0 2.0 0.0 -1 67
- 2.575692 2 1 sctp 48 ------- 0 2.0 0.0 -1 67
r 2.579692 1 2 sctp 1500 ------- 1 0.0 2.0 -1 59
r 2.582492 1 0 sctp 48 ------- 0 2.0 0.0 -1 61
+ 2.582492 0 1 sctp 1500 ------- 1 0.0 2.0 -1 68
- 2.582492 0 1 sctp 1500 ------- 1 0.0 2.0 -1 68
+ 2.582492 0 1 sctp 1500 ------- 1 0.0 2.0 -1 69
+ 2.582492 0 1 sctp 1500 ------- 1 0.0 2.0 -1 70
r 2.583692 1 2 sctp 1500 ------- 1 0.0 2.0 -1 60
+ 2.583692 2 1 sctp 48 ------- 0 2.0 0.0 -1 71
- 2.583692 2 1 sctp 48 ------- 0 2.0 0.0 -1 71
- 2.583692 0 1 sctp 1500 ------- 1 0.0 2.0 -1 69
- 2.584892 0 1 sctp 1500 ------- 1 0.0 2.0 -1 70
r 2.590492 1 0 sctp 48 ------- 0 2.0 0.0 -1 62
+ 2.590492 0 1 sctp 1500 ------- 1 0.0 2.0 -1 72
- 2.590492 0 1 sctp 1500 ------- 1 0.0 2.0 -1 72
+ 2.590492 0 1 sctp 1500 ------- 1 0.0 2.0 -1 73
+ 2.590492 0 1 sctp 1500 ------- 1 0.0 2.0 -1 74
- 2.591692 0 1 sctp 1500 ------- 1 0.0 2.0 -1 73
- 2.592892 0 1 sctp 1500 ------- 1 0.0 2.0 -1 74
r 2.62382 2 1 sctp 48 ------- 0 2.0 0.0 -1 63
+ 2.62382 1 0 sctp 48 ------- 0 2.0 0.0 -1 63
- 2.62382 1 0 sctp 48 ------- 0 2.0 0.0 -1 63
r 2.63182 2 1 sctp 48 ------- 0 2.0 0.0 -1 64
+ 2.63182 1 0 sctp 48 ------- 0 2.0 0.0 -1 64
- 2.63182 1 0 sctp 48 ------- 0 2.0 0.0 -1 64
r 2.63982 2 1 sctp 48 ------- 0 2.0 0.0 -1 65
+ 2.63982 1 0 sctp 48 ------- 0 2.0 0.0 -1 65
- 2.63982 1 0 sctp 48 ------- 0 2.0 0.0 -1 65
r 2.64782 2 1 sctp 48 ------- 0 2.0 0.0 -1 66
+ 2.64782 1 0 sctp 48 ------- 0 2.0 0.0 -1 66
- 2.64782 1 0 sctp 48 ------- 0 2.0 0.0 -1 66
r 2.65582 2 1 sctp 48 ------- 0 2.0 0.0 -1 67
+ 2.65582 1 0 sctp 48 ------- 0 2.0 0.0 -1 67
- 2.65582 1 0 sctp 48 ------- 0 2.0 0.0 -1 67
r 2.663692 0 1 sctp 1500 ------- 1 0.0 2.0 -1 68
+ 2.663692 1 2 sctp 1500 ------- 1 0.0 2.0 -1 68
- 2.663692 1 2 sctp 1500 ------- 1 0.0 2.0 -1 68
r 2.66382 2 1 sctp 48 ------- 0 2.0 0.0 -1 71
+ 2.66382 1 0 sctp 48 ------- 0 2.0 0.0 -1 71
- 2.66382 1 0 sctp 48 ------- 0 2.0 0.0 -1 71
r 2.664892 0 1 sctp 1500 ------- 1 0.0 2.0 -1 69
+ 2.664892 1 2 sctp 1500 ------- 1 0.0 2.0 -1 69
r 2.666092 0 1 sctp 1500 ------- 1 0.0 2.0 -1 70
+ 2.666092 1 2 sctp 1500 ------- 1 0.0 2.0 -1 70
- 2.667692 1 2 sctp 1500 ------- 1 0.0 2.0 -1 69
r 2.671692 0 1 sctp 1500 ------- 1 0.0 2.0 -1 72
+ 2.671692 1 2 sctp 1500 ------- 1 0.0 2.0 -1 72
- 2.671692 1 2 sctp 1500 ------- 1 0.0 2.0 -1 70
r 2.672892 0 1 sctp 1500 ------- 1 0.0 2.0 -1 73
+ 2.672892 1 2 sctp 1500 ------- 1 0.0 2.0 -1 73
r 2.674092 0 1 sctp 1500 ------- 1 0.0 2.0 -1 74
+ 2.674092 1 2 sctp 1500 ------- 1 0.0 2.0 -1 74
- 2.675692 1 2 sctp 1500 ------- 1 0.0 2.0 -1 72
- 2.679692 1 2 sctp 1500 ------- 1 0.0 2.0 -1 73
- 2.683692 1 2 sctp 1500 ------- 1 0.0 2.0 -1 74
r 2.703858 1 0 sctp 48 ------- 0 2.0 0.0 -1 63
+ 2.703858 0 1 sctp 1500 ------- 1 0.0 2.0 -1 75
- 2.703858 0 1 sctp 1500 ------- 1 0.0 2.0 -1 75
+ 2.703858 0 1 sctp 1500 ------- 1 0.0 2.0 -1 76
+ 2.703858 0 1 sctp 1500 ------- 1 0.0 2.0 -1 77
- 2.705058 0 1 sctp 1500 ------- 1 0.0 2.0 -1 76
- 2.706258 0 1 sctp 1500 ------- 1 0.0 2.0 -1 77
r 2.711858 1 0 sctp 48 ------- 0 2.0 0.0 -1 64
+ 2.711858 0 1 sctp 1500 ------- 1 0.0 2.0 -1 78
- 2.711858 0 1 sctp 1500 ------- 1 0.0 2.0 -1 78
+ 2.711858 0 1 sctp 1500 ------- 1 0.0 2.0 -1 79
+ 2.711858 0 1 sctp 1500 ------- 1 0.0 2.0 -1 80
- 2.713058 0 1 sctp 1500 ------- 1 0.0 2.0 -1 79
- 2.714258 0 1 sctp 1500 ------- 1 0.0 2.0 -1 80
r 2.719858 1 0 sctp 48 ------- 0 2.0 0.0 -1 65
+ 2.719858 0 1 sctp 1500 ------- 1 0.0 2.0 -1 81
- 2.719858 0 1 sctp 1500 ------- 1 0.0 2.0 -1 81
+ 2.719858 0 1 sctp 1500 ------- 1 0.0 2.0 -1 82
+ 2.719858 0 1 sctp 1500 ------- 1 0.0 2.0 -1 83
- 2.721058 0 1 sctp 1500 ------- 1 0.0 2.0 -1 82
- 2.722258 0 1 sctp 1500 ------- 1 0.0 2.0 -1 83
r 2.727858 1 0 sctp 48 ------- 0 2.0 0.0 -1 66
+ 2.727858 0 1 sctp 1500 ------- 1 0.0 2.0 -1 84
- 2.727858 0 1 sctp 1500 ------- 1 0.0 2.0 -1 84
+ 2.727858 0 1 sctp 1500 ------- 1 0.0 2.0 -1 85
+ 2.727858 0 1 sctp 1500 ------- 1 0.0 2.0 -1 86
- 2.729058 0 1 sctp 1500 ------- 1 0.0 2.0 -1 85
- 2.730258 0 1 sctp 1500 ------- 1 0.0 2.0 -1 86
r 2.735858 1 0 sctp 48 ------- 0 2.0 0.0 -1 67
+ 2.735858 0 1 sctp 1500 ------- 1 0.0 2.0 -1 87
- 2.735858 0 1 sctp 1500 ------- 1 0.0 2.0 -1 87
+ 2.735858 0 1 sctp 1500 ------- 1 0.0 2.0 -1 88
+ 2.735858 0 1 sctp 1500 ------- 1 0.0 2.0 -1 89
- 2.737058 0 1 sctp 1500 ------- 1 0.0 2.0 -1 88
- 2.738258 0 1 sctp 1500 ------- 1 0.0 2.0 -1 89
r 2.743858 1 0 sctp 48 ------- 0 2.0 0.0 -1 71
+ 2.743858 0 1 sctp 1500 ------- 1 0.0 2.0 -1 90
- 2.743858 0 1 sctp 1500 ------- 1 0.0 2.0 -1 90
+ 2.743858 0 1 sctp 1500 ------- 1 0.0 2.0 -1 91
+ 2.743858 0 1 sctp 1500 ------- 1 0.0 2.0 -1 92
- 2.745058 0 1 sctp 1500 ------- 1 0.0 2.0 -1 91
- 2.746258 0 1 sctp 1500 ------- 1 0.0 2.0 -1 92
r 2.747692 1 2 sctp 1500 ------- 1 0.0 2.0 -1 68
r 2.751692 1 2 sctp 1500 ------- 1 0.0 2.0 -1 69
+ 2.751692 2 1 sctp 48 ------- 0 2.0 0.0 -1 93
- 2.751692 2 1 sctp 48 ------- 0 2.0 0.0 -1 93
r 2.755692 1 2 sctp 1500 ------- 1 0.0 2.0 -1 70
r 2.759692 1 2 sctp 1500 ------- 1 0.0 2.0 -1 72
+ 2.759692 2 1 sctp 48 ------- 0 2.0 0.0 -1 94
- 2.759692 2 1 sctp 48 ------- 0 2.0 0.0 -1 94
r 2.763692 1 2 sctp 1500 ------- 1 0.0 2.0 -1 73
r 2.767692 1 2 sctp 1500 ------- 1 0.0 2.0 -1 74
+ 2.767692 2 1 sctp 48 ------- 0 2.0 0.0 -1 95
- 2.767692 2 1 sctp 48 ------- 0 2.0 0.0 -1 95
r 2.785058 0 1 sctp 1500 ------- 1 0.0 2.0 -1 75
+ 2.785058 1 2 sctp 1500 ------- 1 0.0 2.0 -1 75
- 2.785058 1 2 sctp 1500 ------- 1 0.0 2.0 -1 75
r 2.786258 0 1 sctp 1500 ------- 1 0.0 2.0 -1 76
+ 2.786258 1 2 sctp 1500 ------- 1 0.0 2.0 -1 76
r 2.787458 0 1 sctp 1500 ------- 1 0.0 2.0 -1 77
+ 2.787458 1 2 sctp 1500 ------- 1 0.0 2.0 -1 77
- 2.789058 1 2 sctp 1500 ------- 1 0.0 2.0 -1 76
r 2.793058 0 1 sctp 1500 ------- 1 0.0 2.0 -1 78
+ 2.793058 1 2 sctp 1500 ------- 1 0.0 2.0 -1 78
- 2.793058 1 2 sctp 1500 ------- 1 0.0 2.0 -1 77
r 2.794258 0 1 sctp 1500 ------- 1 0.0 2.0 -1 79
+ 2.794258 1 2 sctp 1500 ------- 1 0.0 2.0 -1 79
r 2.795458 0 1 sctp 1500 ------- 1 0.0 2.0 -1 80
+ 2.795458 1 2 sctp 1500 ------- 1 0.0 2.0 -1 80
- 2.797058 1 2 sctp 1500 ------- 1 0.0 2.0 -1 78
r 2.801058 0 1 sctp 1500 ------- 1 0.0 2.0 -1 81
+ 2.801058 1 2 sctp 1500 ------- 1 0.0 2.0 -1 81
- 2.801058 1 2 sctp 1500 ------- 1 0.0 2.0 -1 79
r 2.802258 0 1 sctp 1500 ------- 1 0.0 2.0 -1 82
+ 2.802258 1 2 sctp 1500 ------- 1 0.0 2.0 -1 82
r 2.803458 0 1 sctp 1500 ------- 1 0.0 2.0 -1 83
+ 2.803458 1 2 sctp 1500 ------- 1 0.0 2.0 -1 83
- 2.805058 1 2 sctp 1500 ------- 1 0.0 2.0 -1 80
r 2.809058 0 1 sctp 1500 ------- 1 0.0 2.0 -1 84
+ 2.809058 1 2 sctp 1500 ------- 1 0.0 2.0 -1 84
- 2.809058 1 2 sctp 1500 ------- 1 0.0 2.0 -1 81
r 2.810258 0 1 sctp 1500 ------- 1 0.0 2.0 -1 85
+ 2.810258 1 2 sctp 1500 ------- 1 0.0 2.0 -1 85
r 2.811458 0 1 sctp 1500 ------- 1 0.0 2.0 -1 86
+ 2.811458 1 2 sctp 1500 ------- 1 0.0 2.0 -1 86
- 2.813058 1 2 sctp 1500 ------- 1 0.0 2.0 -1 82
r 2.817058 0 1 sctp 1500 ------- 1 0.0 2.0 -1 87
+ 2.817058 1 2 sctp 1500 ------- 1 0.0 2.0 -1 87
- 2.817058 1 2 sctp 1500 ------- 1 0.0 2.0 -1 83
r 2.818258 0 1 sctp 1500 ------- 1 0.0 2.0 -1 88
+ 2.818258 1 2 sctp 1500 ------- 1 0.0 2.0 -1 88
r 2.819458 0 1 sctp 1500 ------- 1 0.0 2.0 -1 89
+ 2.819458 1 2 sctp 1500 ------- 1 0.0 2.0 -1 89
- 2.821058 1 2 sctp 1500 ------- 1 0.0 2.0 -1 84
r 2.825058 0 1 sctp 1500 ------- 1 0.0 2.0 -1 90
+ 2.825058 1 2 sctp 1500 ------- 1 0.0 2.0 -1 90
- 2.825058 1 2 sctp 1500 ------- 1 0.0 2.0 -1 85
r 2.826258 0 1 sctp 1500 ------- 1 0.0 2.0 -1 91
+ 2.826258 1 2 sctp 1500 ------- 1 0.0 2.0 -1 91
r 2.827458 0 1 sctp 1500 ------- 1 0.0 2.0 -1 92
+ 2.827458 1 2 sctp 1500 ------- 1 0.0 2.0 -1 92
- 2.829058 1 2 sctp 1500 ------- 1 0.0 2.0 -1 86
r 2.83182 2 1 sctp 48 ------- 0 2.0 0.0 -1 93
+ 2.83182 1 0 sctp 48 ------- 0 2.0 0.0 -1 93
- 2.83182 1 0 sctp 48 ------- 0 2.0 0.0 -1 93
- 2.833058 1 2 sctp 1500 ------- 1 0.0 2.0 -1 87
- 2.837058 1 2 sctp 1500 ------- 1 0.0 2.0 -1 88
r 2.83982 2 1 sctp 48 ------- 0 2.0 0.0 -1 94
+ 2.83982 1 0 sctp 48 ------- 0 2.0 0.0 -1 94
- 2.83982 1 0 sctp 48 ------- 0 2.0 0.0 -1 94
- 2.841058 1 2 sctp 1500 ------- 1 0.0 2.0 -1 89
- 2.845058 1 2 sctp 1500 ------- 1 0.0 2.0 -1 90
r 2.84782 2 1 sctp 48 ------- 0 2.0 0.0 -1 95
+ 2.84782 1 0 sctp 48 ------- 0 2.0 0.0 -1 95
- 2.84782 1 0 sctp 48 ------- 0 2.0 0.0 -1 95
- 2.849058 1 2 sctp 1500 ------- 1 0.0 2.0 -1 91
- 2.853058 1 2 sctp 1500 ------- 1 0.0 2.0 -1 92
r 2.869058 1 2 sctp 1500 ------- 1 0.0 2.0 -1 75
r 2.873058 1 2 sctp 1500 ------- 1 0.0 2.0 -1 76
+ 2.873058 2 1 sctp 48 ------- 0 2.0 0.0 -1 96
- 2.873058 2 1 sctp 48 ------- 0 2.0 0.0 -1 96
r 2.877058 1 2 sctp 1500 ------- 1 0.0 2.0 -1 77
r 2.881058 1 2 sctp 1500 ------- 1 0.0 2.0 -1 78
+ 2.881058 2 1 sctp 48 ------- 0 2.0 0.0 -1 97
- 2.881058 2 1 sctp 48 ------- 0 2.0 0.0 -1 97
r 2.885058 1 2 sctp 1500 ------- 1 0.0 2.0 -1 79
r 2.889058 1 2 sctp 1500 ------- 1 0.0 2.0 -1 80
+ 2.889058 2 1 sctp 48 ------- 0 2.0 0.0 -1 98
- 2.889058 2 1 sctp 48 ------- 0 2.0 0.0 -1 98
r 2.893058 1 2 sctp 1500 ------- 1 0.0 2.0 -1 81
r 2.897058 1 2 sctp 1500 ------- 1 0.0 2.0 -1 82
+ 2.897058 2 1 sctp 48 ------- 0 2.0 0.0 -1 99
- 2.897058 2 1 sctp 48 ------- 0 2.0 0.0 -1 99
r 2.901058 1 2 sctp 1500 ------- 1 0.0 2.0 -1 83
r 2.905058 1 2 sctp 1500 ------- 1 0.0 2.0 -1 84
+ 2.905058 2 1 sctp 48 ------- 0 2.0 0.0 -1 100
- 2.905058 2 1 sctp 48 ------- 0 2.0 0.0 -1 100
r 2.909058 1 2 sctp 1500 ------- 1 0.0 2.0 -1 85
r 2.911858 1 0 sctp 48 ------- 0 2.0 0.0 -1 93
+ 2.911858 0 1 sctp 1500 ------- 1 0.0 2.0 -1 101
- 2.911858 0 1 sctp 1500 ------- 1 0.0 2.0 -1 101
+ 2.911858 0 1 sctp 1500 ------- 1 0.0 2.0 -1 102
+ 2.911858 0 1 sctp 1500 ------- 1 0.0 2.0 -1 103
r 2.913058 1 2 sctp 1500 ------- 1 0.0 2.0 -1 86
+ 2.913058 2 1 sctp 48 ------- 0 2.0 0.0 -1 104
- 2.913058 2 1 sctp 48 ------- 0 2.0 0.0 -1 104
- 2.913058 0 1 sctp 1500 ------- 1 0.0 2.0 -1 102
- 2.914258 0 1 sctp 1500 ------- 1 0.0 2.0 -1 103
r 2.917058 1 2 sctp 1500 ------- 1 0.0 2.0 -1 87
r 2.919858 1 0 sctp 48 ------- 0 2.0 0.0 -1 94
+ 2.919858 0 1 sctp 1500 ------- 1 0.0 2.0 -1 105
- 2.919858 0 1 sctp 1500 ------- 1 0.0 2.0 -1 105
+ 2.919858 0 1 sctp 1500 ------- 1 0.0 2.0 -1 106
+ 2.919858 0 1 sctp 1500 ------- 1 0.0 2.0 -1 107
r 2.921058 1 2 sctp 1500 ------- 1 0.0 2.0 -1 88
+ 2.921058 2 1 sctp 48 ------- 0 2.0 0.0 -1 108
- 2.921058 2 1 sctp 48 ------- 0 2.0 0.0 -1 108
- 2.921058 0 1 sctp 1500 ------- 1 0.0 2.0 -1 106
- 2.922258 0 1 sctp 1500 ------- 1 0.0 2.0 -1 107
r 2.925058 1 2 sctp 1500 ------- 1 0.0 2.0 -1 89
r 2.927858 1 0 sctp 48 ------- 0 2.0 0.0 -1 95
+ 2.927858 0 1 sctp 808 ------- 1 0.0 2.0 -1 109
- 2.927858 0 1 sctp 808 ------- 1 0.0 2.0 -1 109
+ 2.927858 0 1 sctp 1500 ------- 1 0.0 2.0 -1 110
+ 2.927858 0 1 sctp 1500 ------- 1 0.0 2.0 -1 111
+ 2.927858 0 1 sctp 1500 ------- 1 0.0 2.0 -1 112
- 2.928505 0 1 sctp 1500 ------- 1 0.0 2.0 -1 110
r 2.929058 1 2 sctp 1500 ------- 1 0.0 2.0 -1 90
+ 2.929058 2 1 sctp 48 ------- 0 2.0 0.0 -1 113
- 2.929058 2 1 sctp 48 ------- 0 2.0 0.0 -1 113
- 2.929705 0 1 sctp 1500 ------- 1 0.0 2.0 -1 111
- 2.930905 0 1 sctp 1500 ------- 1 0.0 2.0 -1 112
r 2.933058 1 2 sctp 1500 ------- 1 0.0 2.0 -1 91
r 2.937058 1 2 sctp 1500 ------- 1 0.0 2.0 -1 92
+ 2.937058 2 1 sctp 48 ------- 0 2.0 0.0 -1 114
- 2.937058 2 1 sctp 48 ------- 0 2.0 0.0 -1 114
r 2.953186 2 1 sctp 48 ------- 0 2.0 0.0 -1 96
+ 2.953186 1 0 sctp 48 ------- 0 2.0 0.0 -1 96
- 2.953186 1 0 sctp 48 ------- 0 2.0 0.0 -1 96
r 2.961186 2 1 sctp 48 ------- 0 2.0 0.0 -1 97
+ 2.961186 1 0 sctp 48 ------- 0 2.0 0.0 -1 97
- 2.961186 1 0 sctp 48 ------- 0 2.0 0.0 -1 97
r 2.969186 2 1 sctp 48 ------- 0 2.0 0.0 -1 98
+ 2.969186 1 0 sctp 48 ------- 0 2.0 0.0 -1 98
- 2.969186 1 0 sctp 48 ------- 0 2.0 0.0 -1 98
r 2.977186 2 1 sctp 48 ------- 0 2.0 0.0 -1 99
+ 2.977186 1 0 sctp 48 ------- 0 2.0 0.0 -1 99
- 2.977186 1 0 sctp 48 ------- 0 2.0 0.0 -1 99
r 2.985186 2 1 sctp 48 ------- 0 2.0 0.0 -1 100
+ 2.985186 1 0 sctp 48 ------- 0 2.0 0.0 -1 100
- 2.985186 1 0 sctp 48 ------- 0 2.0 0.0 -1 100
r 2.993058 0 1 sctp 1500 ------- 1 0.0 2.0 -1 101
+ 2.993058 1 2 sctp 1500 ------- 1 0.0 2.0 -1 101
- 2.993058 1 2 sctp 1500 ------- 1 0.0 2.0 -1 101
r 2.993186 2 1 sctp 48 ------- 0 2.0 0.0 -1 104
+ 2.993186 1 0 sctp 48 ------- 0 2.0 0.0 -1 104