V -t * -v 1.0a5 -a 0
A -t * -n 1 -p 0 -o 0x7fffffff -c 30 -a 1
A -t * -h 1 -m 1073741823 -s 0
c -t * -i 1 -n Blue
c -t * -i 2 -n Red
n -t * -a 0 -s 0 -S UP -v circle -c black -i black
n -t * -a 1 -s 1 -S UP -v circle -c black -i black
n -t * -a 2 -s 2 -S UP -v circle -c black -i black
l -t * -s 0 -d 1 -S UP -r 10000000 -D 0.080000000000000002 -c black
l -t * -s 1 -d 2 -S UP -r 40000 -D 0.080000000000000002 -c black
+ -t 0.1 -s 0 -d 1 -p sctp -e 56 -c 1 -i 2 -a 1 -x {0.0 2.0 -1 ------- null}
- -t 0.1 -s 0 -d 1 -p sctp -e 56 -c 1 -i 2 -a 1 -x {0.0 2.0 -1 ------- null}
h -t 0.1 -s 0 -d 1 -p sctp -e 56 -c 1 -i 2 -a 1 -x {0.0 2.0 -1 ------- null}
r -t 0.1800448 -s 0 -d 1 -p sctp -e 56 -c 1 -i 2 -a 1 -x {0.0 2.0 -1 ------- null}
+ -t 0.1800448 -s 1 -d 2 -p sctp -e 56 -c 1 -i 2 -a 1 -x {0.0 2.0 -1 ------- null}
- -t 0.1800448 -s 1 -d 2 -p sctp -e 56 -c 1 -i 2 -a 1 -x {0.0 2.0 -1 ------- null}
h -t 0.1800448 -s 1 -d 2 -p sctp -e 56 -c 1 -i 2 -a 1 -x {0.0 2.0 -1 ------- null}
r -t 0.2712448 -s 1 -d 2 -p sctp -e 56 -c 1 -i 2 -a 1 -x {0.0 2.0 -1 ------- null}
+ -t 0.2712448 -s 2 -d 1 -p sctp -e 56 -c 0 -i 3 -a 0 -x {2.0 0.0 -1 ------- null}
- -t 0.2712448 -s 2 -d 1 -p sctp -e 56 -c 0 -i 3 -a 0 -x {2.0 0.0 -1 ------- null}
h -t 0.2712448 -s 2 -d 1 -p sctp -e 56 -c 0 -i 3 -a 0 -x {2.0 0.0 -1 ------- null}
r -t 0.3624448 -s 2 -d 1 -p sctp -e 56 -c 0 -i 3 -a 0 -x {2.0 0.0 -1 ------- null}
+ -t 0.3624448 -s 1 -d 0 -p sctp -e 56 -c 0 -i 3 -a 0 -x {2.0 0.0 -1 ------- null}
- -t 0.3624448 -s 1 -d 0 -p sctp -e 56 -c 0 -i 3 -a 0 -x {2.0 0.0 -1 ------- null}
h -t 0.3624448 -s 1 -d 0 -p sctp -e 56 -c 0 -i 3 -a 0 -x {2.0 0.0 -1 ------- null}
r -t 0.4424896 -s 1 -d 0 -p sctp -e 56 -c 0 -i 3 -a 0 -x {2.0 0.0 -1 ------- null}
+ -t 0.4424896 -s 0 -d 1 -p sctp -e 36 -c 1 -i 4 -a 1 -x {0.0 2.0 -1 ------- null}
- -t 0.4424896 -s 0 -d 1 -p sctp -e 36 -c 1 -i 4 -a 1 -x {0.0 2.0 -1 ------- null}
h -t 0.4424896 -s 0 -d 1 -p sctp -e 36 -c 1 -i 4 -a 1 -x {0.0 2.0 -1 ------- null}
r -t 0.5225184 -s 0 -d 1 -p sctp -e 36 -c 1 -i 4 -a 1 -x {0.0 2.0 -1 ------- null}
+ -t 0.5225184 -s 1 -d 2 -p sctp -e 36 -c 1 -i 4 -a 1 -x {0.0 2.0 -1 ------- null}
- -t 0.5225184 -s 1 -d 2 -p sctp -e 36 -c 1 -i 4 -a 1 -x {0.0 2.0 -1 ------- null}
h -t 0.5225184 -s 1 -d 2 -p sctp -e 36 -c 1 -i 4 -a 1 -x {0.0 2.0 -1 ------- null}
r -t 0.6097184 -s 1 -d 2 -p sctp -e 36 -c 1 -i 4 -a 1 -x {0.0 2.0 -1 ------- null}
+ -t 0.6097184 -s 2 -d 1 -p sctp -e 36 -c 0 -i 5 -a 0 -x {2.0 0.0 -1 ------- null}
- -t 0.6097184 -s 2 -d 1 -p sctp -e 36 -c 0 -i 5 -a 0 -x {2.0 0.0 -1 ------- null}
h -t 0.6097184 -s 2 -d 1 -p sctp -e 36 -c 0 -i 5 -a 0 -x {2.0 0.0 -1 ------- null}
r -t 0.6969184 -s 2 -d 1 -p sctp -e 36 -c 0 -i 5 -a 0 -x {2.0 0.0 -1 ------- null}
+ -t 0.6969184 -s 1 -d 0 -p sctp -e 36 -c 0 -i 5 -a 0 -x {2.0 0.0 -1 ------- null}
- -t 0.6969184 -s 1 -d 0 -p sctp -e 36 -c 0 -i 5 -a 0 -x {2.0 0.0 -1 ------- null}
h -t 0.6969184 -s 1 -d 0 -p sctp -e 36 -c 0 -i 5 -a 0 -x {2.0 0.0 -1 ------- null}
r -t 0.7769472 -s 1 -d 0 -p sctp -e 36 -c 0 -i 5 -a 0 -x {2.0 0.0 -1 ------- null}
+ -t 0.7769472 -s 0 -d 1 -p sctp -e 56 -c 1 -i 6 -a 1 -x {0.0 2.0 -1 ------- null}
- -t 0.7769472 -s 0 -d 1 -p sctp -e 56 -c 1 -i 6 -a 1 -x {0.0 2.0 -1 ------- null}
h -t 0.7769472 -s 0 -d 1 -p sctp -e 56 -c 1 -i 6 -a 1 -x {0.0 2.0 -1 ------- null}
r -t 0.856992 -s 0 -d 1 -p sctp -e 56 -c 1 -i 6 -a 1 -x {0.0 2.0 -1 ------- null}
+ -t 0.856992 -s 1 -d 2 -p sctp -e 56 -c 1 -i 6 -a 1 -x {0.0 2.0 -1 ------- null}
- -t 0.856992 -s 1 -d 2 -p sctp -e 56 -c 1 -i 6 -a 1 -x {0.0 2.0 -1 ------- null}
h -t 0.856992 -s 1 -d 2 -p sctp -e 56 -c 1 -i 6 -a 1 -x {0.0 2.0 -1 ------- null}
r -t 0.948192 -s 1 -d 2 -p sctp -e 56 -c 1 -i 6 -a 1 -x {0.0 2.0 -1 ------- null}
+ -t 0.948192 -s 2 -d 1 -p sctp -e 56 -c 0 -i 7 -a 0 -x {2.0 0.0 -1 ------- null}
- -t 0.948192 -s 2 -d 1 -p sctp -e 56 -c 0 -i 7 -a 0 -x {2.0 0.0 -1 ------- null}
h -t 0.948192 -s 2 -d 1 -p sctp -e 56 -c 0 -i 7 -a 0 -x {2.0 0.0 -1 ------- null}
r -t 1.039392 -s 2 -d 1 -p sctp -e 56 -c 0 -i 7 -a 0 -x {2.0 0.0 -1 ------- null}
+ -t 1.039392 -s 1 -d 0 -p sctp -e 56 -c 0 -i 7 -a 0 -x {2.0 0.0 -1 ------- null}
- -t 1.039392 -s 1 -d 0 -p sctp -e 56 -c 0 -i 7 -a 0 -x {2.0 0.0 -1 ------- null}
h -t 1.039392 -s 1 -d 0 -p sctp -e 56 -c 0 -i 7 -a 0 -x {2.0 0.0 -1 ------- null}
r -t 1.1194368 -s 1 -d 0 -p sctp -e 56 -c 0 -i 7 -a 0 -x {2.0 0.0 -1 ------- null}
+ -t 1.1194368 -s 0 -d 1 -p sctp -e 1500 -c 1 -i 8 -a 1 -x {0.0 2.0 -1 ------- null}
- -t 1.1194368 -s 0 -d 1 -p sctp -e 1500 -c 1 -i 8 -a 1 -x {0.0 2.0 -1 ------- null}
h -t 1.1194368 -s 0 -d 1 -p sctp -e 1500 -c 1 -i 8 -a 1 -x {0.0 2.0 -1 ------- null}
+ -t 1.1194368 -s 0 -d 1 -p sctp -e 1500 -c 1 -i 9 -a 1 -x {0.0 2.0 -1 ------- null}
+ -t 1.1194368 -s 0 -d 1 -p sctp -e 1500 -c 1 -i 10 -a 1 -x {0.0 2.0 -1 ------- null}
- -t 1.1206368 -s 0 -d 1 -p sctp -e 1500 -c 1 -i 9 -a 1 -x {0.0 2.0 -1 ------- null}
h -t 1.1206368 -s 0 -d 1 -p sctp -e 1500 -c 1 -i 9 -a 1 -x {0.0 2.0 -1 ------- null}
- -t 1.1218368 -s 0 -d 1 -p sctp -e 1500 -c 1 -i 10 -a 1 -x {0.0 2.0 -1 ------- null}
h -t 1.1218368 -s 0 -d 1 -p sctp -e 1500 -c 1 -i 10 -a 1 -x {0.0 2.0 -1 ------- null}
r -t 1.2006368 -s 0 -d 1 -p sctp -e 1500 -c 1 -i 8 -a 1 -x {0.0 2.0 -1 ------- null}
+ -t 1.2006368 -s 1 -d 2 -p sctp -e 1500 -c 1 -i 8 -a 1 -x {0.0 2.0 -1 ------- null}
- -t 1.2006368 -s 1 -d 2 -p sctp -e 1500 -c 1 -i 8 -a 1 -x {0.0 2.0 -1 ------- null}
h -t 1.2006368 -s 1 -d 2 -p sctp -e 1500 -c 1 -i 8 -a 1 -x {0.0 2.0 -1 ------- null}
r -t 1.2018368 -s 0 -d 1 -p sctp -e 1500 -c 1 -i 9 -a 1 -x {0.0 2.0 -1 ------- null}
+ -t 1.2018368 -s 1 -d 2 -p sctp -e 1500 -c 1 -i 9 -a 1 -x {0.0 2.0 -1 ------- null}
r -t 1.2030368 -s 0 -d 1 -p sctp -e 1500 -c 1 -i 10 -a 1 -x {0.0 2.0 -1 ------- null}
+ -t 1.2030368 -s 1 -d 2 -p sctp -e 1500 -c 1 -i 10 -a 1 -x {0.0 2.0 -1 ------- null}
- -t 1.5006368 -s 1 -d 2 -p sctp -e 1500 -c 1 -i 9 -a 1 -x {0.0 2.0 -1 ------- null}
h -t 1.5006368 -s 1 -d 2 -p sctp -e 1500 -c 1 -i 9 -a 1 -x {0.0 2.0 -1 ------- null}
r -t 1.5806368 -s 1 -d 2 -p sctp -e 1500 -c 1 -i 8 -a 1 -x {0.0 2.0 -1 ------- null}
+ -t 1.5806368 -s 2 -d 1 -p sctp -e 48 -c 0 -i 11 -a 0 -x {2.0 0.0 -1 ------- null}
- -t 1.5806368 -s 2 -d 1 -p sctp -e 48 -c 0 -i 11 -a 0 -x {2.0 0.0 -1 ------- null}
h -t 1.5806368 -s 2 -d 1 -p sctp -e 48 -c 0 -i 11 -a 0 -x {2.0 0.0 -1 ------- null}
r -t 1.6702368 -s 2 -d 1 -p sctp -e 48 -c 0 -i 11 -a 0 -x {2.0 0.0 -1 ------- null}
+ -t 1.6702368 -s 1 -d 0 -p sctp -e 48 -c 0 -i 11 -a 0 -x {2.0 0.0 -1 ------- null}
- -t 1.6702368 -s 1 -d 0 -p sctp -e 48 -c 0 -i 11 -a 0 -x {2.0 0.0 -1 ------- null}
h -t 1.6702368 -s 1 -d 0 -p sctp -e 48 -c 0 -i 11 -a 0 -x {2.0 0.0 -1 ------- null}
r -t 1.7502752 -s 1 -d 0 -p sctp -e 48 -c 0 -i 11 -a 0 -x {2.0 0.0 -1 ------- null}
+ -t 1.7502752 -s 0 -d 1 -p sctp -e 1500 -c 1 -i 12 -a 1 -x {0.0 2.0 -1 ------- null}
- -t 1.7502752 -s 0 -d 1 -p sctp -e 1500 -c 1 -i 12 -a 1 -x {0.0 2.0 -1 ------- null}
h -t 1.7502752 -s 0 -d 1 -p sctp -e 1500 -c 1 -i 12 -a 1 -x {0.0 2.0 -1 ------- null}
+ -t 1.7502752 -s 0 -d 1 -p sctp -e 1500 -c 1 -i 13 -a 1 -x {0.0 2.0 -1 ------- null}
- -t 1.7514752 -s 0 -d 1 -p sctp -e 1500 -c 1 -i 13 -a 1 -x {0.0 2.0 -1 ------- null}
h -t 1.7514752 -s 0 -d 1 -p sctp -e 1500 -c 1 -i 13 -a 1 -x {0.0 2.0 -1 ------- null}
- -t 1.8006368 -s 1 -d 2 -p sctp -e 1500 -c 1 -i 10 -a 1 -x {0.0 2.0 -1 ------- null}
h -t 1.8006368 -s 1 -d 2 -p sctp -e 1500 -c 1 -i 10 -a 1 -x {0.0 2.0 -1 ------- null}
r -t 1.8314752 -s 0 -d 1 -p sctp -e 1500 -c 1 -i 12 -a 1 -x {0.0 2.0 -1 ------- null}
+ -t 1.8314752 -s 1 -d 2 -p sctp -e 1500 -c 1 -i 12 -a 1 -x {0.0 2.0 -1 ------- null}
r -t 1.8326752 -s 0 -d 1 -p sctp -e 1500 -c 1 -i 13 -a 1 -x {0.0 2.0 -1 ------- null}
+ -t 1.8326752 -s 1 -d 2 -p sctp -e 1500 -c 1 -i 13 -a 1 -x {0.0 2.0 -1 ------- null}
r -t 1.8806368 -s 1 -d 2 -p sctp -e 1500 -c 1 -i 9 -a 1 -x {0.0 2.0 -1 ------- null}
+ -t 2.0806368 -s 2 -d 1 -p sctp -e 48 -c 0 -i 14 -a 0 -x {2.0 0.0 -1 ------- null}
- -t 2.0806368 -s 2 -d 1 -p sctp -e 48 -c 0 -i 14 -a 0 -x {2.0 0.0 -1 ------- null}
h -t 2.0806368 -s 2 -d 1 -p sctp -e 48 -c 0 -i 14 -a 0 -x {2.0 0.0 -1 ------- null}
- -t 2.1006368 -s 1 -d 2 -p sctp -e 1500 -c 1 -i 12 -a 1 -x {0.0 2.0 -1 ------- null}
h -t 2.1006368 -s 1 -d 2 -p sctp -e 1500 -c 1 -i 12 -a 1 -x {0.0 2.0 -1 ------- null}
r -t 2.1702368 -s 2 -d 1 -p sctp -e 48 -c 0 -i 14 -a 0 -x {2.0 0.0 -1 ------- null}
+ -t 2.1702368 -s 1 -d 0 -p sctp -e 48 -c 0 -i 14 -a 0 -x {2.0 0.0 -1 ------- null}
- -t 2.1702368 -s 1 -d 0 -p sctp -e 48 -c 0 -i 14 -a 0 -x {2.0 0.0 -1 ------- null}
h -t 2.1702368 -s 1 -d 0 -p sctp -e 48 -c 0 -i 14 -a 0 -x {2.0 0.0 -1 ------- null}
r -t 2.1806368 -s 1 -d 2 -p sctp -e 1500 -c 1 -i 10 -a 1 -x {0.0 2.0 -1 ------- null}
r -t 2.2502752 -s 1 -d 0 -p sctp -e 48 -c 0 -i 14 -a 0 -x {2.0 0.0 -1 ------- null}
+ -t 2.2502752 -s 0 -d 1 -p sctp -e 1500 -c 1 -i 15 -a 1 -x {0.0 2.0 -1 ------- null}
- -t 2.2502752 -s 0 -d 1 -p sctp -e 1500 -c 1 -i 15 -a 1 -x {0.0 2.0 -1 ------- null}
h -t 2.2502752 -s 0 -d 1 -p sctp -e 1500 -c 1 -i 15 -a 1 -x {0.0 2.0 -1 ------- null}
+ -t 2.2502752 -s 0 -d 1 -p sctp -e 1500 -c 1 -i 16 -a 1 -x {0.0 2.0 -1 ------- null}
- -t 2.2514752 -s 0 -d 1 -p sctp -e 1500 -c 1 -i 16 -a 1 -x {0.0 2.0 -1 ------- null}
h -t 2.2514752 -s 0 -d 1 -p sctp -e 1500 -c 1 -i 16 -a 1 -x {0.0 2.0 -1 ------- null}
r -t 2.3314752 -s 0 -d 1 -p sctp -e 1500 -c 1 -i 15 -a 1 -x {0.0 2.0 -1 ------- null}
+ -t 2.3314752 -s 1 -d 2 -p sctp -e 1500 -c 1 -i 15 -a 1 -x {0.0 2.0 -1 ------- null}
r -t 2.3326752 -s 0 -d 1 -p sctp -e 1500 -c 1 -i 16 -a 1 -x {0.0 2.0 -1 ------- null}
+ -t 2.3326752 -s 1 -d 2 -p sctp -e 1500 -c 1 -i 16 -a 1 -x {0.0 2.0 -1 ------- null}
+ -t 2.3806368 -s 2 -d 1 -p sctp -e 48 -c 0 -i 17 -a 0 -x {2.0 0.0 -1 ------- null}
- -t 2.3806368 -s 2 -d 1 -p sctp -e 48 -c 0 -i 17 -a 0 -x {2.0 0.0 -1 ------- null}
h -t 2.3806368 -s 2 -d 1 -p sctp -e 48 -c 0 -i 17 -a 0 -x {2.0 0.0 -1 ------- null}
- -t 2.4006368 -s 1 -d 2 -p sctp -e 1500 -c 1 -i 13 -a 1 -x {0.0 2.0 -1 ------- null}
h -t 2.4006368 -s 1 -d 2 -p sctp -e 1500 -c 1 -i 13 -a 1 -x {0.0 2.0 -1 ------- null}
r -t 2.4702368 -s 2 -d 1 -p sctp -e 48 -c 0 -i 17 -a 0 -x {2.0 0.0 -1 ------- null}
+ -t 2.4702368 -s 1 -d 0 -p sctp -e 48 -c 0 -i 17 -a 0 -x {2.0 0.0 -1 ------- null}
- -t 2.4702368 -s 1 -d 0 -p sctp -e 48 -c 0 -i 17 -a 0 -x {2.0 0.0 -1 ------- null}
h -t 2.4702368 -s 1 -d 0 -p sctp -e 48 -c 0 -i 17 -a 0 -x {2.0 0.0 -1 ------- null}
r -t 2.4806368 -s 1 -d 2 -p sctp -e 1500 -c 1 -i 12 -a 1 -x {0.0 2.0 -1 ------- null}
r -t 2.5502752 -s 1 -d 0 -p sctp -e 48 -c 0 -i 17 -a 0 -x {2.0 0.0 -1 ------- null}
+ -t 2.5502752 -s 0 -d 1 -p sctp -e 1500 -c 1 -i 18 -a 1 -x {0.0 2.0 -1 ------- null}
- -t 2.5502752 -s 0 -d 1 -p sctp -e 1500 -c 1 -i 18 -a 1 -x {0.0 2.0 -1 ------- null}
h -t 2.5502752 -s 0 -d 1 -p sctp -e 1500 -c 1 -i 18 -a 1 -x {0.0 2.0 -1 ------- null}
+ -t 2.5502752 -s 0 -d 1 -p sctp -e 1500 -c 1 -i 19 -a 1 -x {0.0 2.0 -1 ------- null}
- -t 2.5514752 -s 0 -d 1 -p sctp -e 1500 -c 1 -i 19 -a 1 -x {0.0 2.0 -1 ------- null}
h -t 2.5514752 -s 0 -d 1 -p sctp -e 1500 -c 1 -i 19 -a 1 -x {0.0 2.0 -1 ------- null}
r -t 2.6314752 -s 0 -d 1 -p sctp -e 1500 -c 1 -i 18 -a 1 -x {0.0 2.0 -1 ------- null}
+ -t 2.6314752 -s 1 -d 2 -p sctp -e 1500 -c 1 -i 18 -a 1 -x {0.0 2.0 -1 ------- null}
r -t 2.6326752 -s 0 -d 1 -p sctp -e 1500 -c 1 -i 19 -a 1 -x {0.0 2.0 -1 ------- null}
+ -t 2.6326752 -s 1 -d 2 -p sctp -e 1500 -c 1 -i 19 -a 1 -x {0.0 2.0 -1 ------- null}
+ -t 2.6806368 -s 2 -d 1 -p sctp -e 48 -c 0 -i 20 -a 0 -x {2.0 0.0 -1 ------- null}
- -t 2.6806368 -s 2 -d 1 -p sctp -e 48 -c 0 -i 20 -a 0 -x {2.0 0.0 -1 ------- null}
h -t 2.6806368 -s 2 -d 1 -p sctp -e 48 -c 0 -i 20 -a 0 -x {2.0 0.0 -1 ------- null}
- -t 2.7006368 -s 1 -d 2 -p sctp -e 1500 -c 1 -i 15 -a 1 -x {0.0 2.0 -1 ------- null}
h -t 2.7006368 -s 1 -d 2 -p sctp -e 1500 -c 1 -i 15 -a 1 -x {0.0 2.0 -1 ------- null}
r -t 2.7702368 -s 2 -d 1 -p sctp -e 48 -c 0 -i 20 -a 0 -x {2.0 0.0 -1 ------- null}
+ -t 2.7702368 -s 1 -d 0 -p sctp -e 48 -c 0 -i 20 -a 0 -x {2.0 0.0 -1 ------- null}
- -t 2.7702368 -s 1 -d 0 -p sctp -e 48 -c 0 -i 20 -a 0 -x {2.0 0.0 -1 ------- null}
h -t 2.7702368 -s 1 -d 0 -p sctp -e 48 -c 0 -i 20 -a 0 -x {2.0 0.0 -1 ------- null}
r -t 2.7806368 -s 1 -d 2 -p sctp -e 1500 -c 1 -i 13 -a 1 -x {0.0 2.0 -1 ------- null}
r -t 2.8502752 -s 1 -d 0 -p sctp -e 48 -c 0 -i 20 -a 0 -x {2.0 0.0 -1 ------- null}
+ -t 2.8502752 -s 0 -d 1 -p sctp -e 1500 -c 1 -i 21 -a 1 -x {0.0 2.0 -1 ------- null}
- -t 2.8502752 -s 0 -d 1 -p sctp -e 1500 -c 1 -i 21 -a 1 -x {0.0 2.0 -1 ------- null}
h -t 2.8502752 -s 0 -d 1 -p sctp -e 1500 -c 1 -i 21 -a 1 -x {0.0 2.0 -1 ------- null}
+ -t 2.8502752 -s 0 -d 1 -p sctp -e 1500 -c 1 -i 22 -a 1 -x {0.0 2.0 -1 ------- null}
- -t 2.8514752 -s 0 -d 1 -p sctp -e 1500 -c 1 -i 22 -a 1 -x {0.0 2.0 -1 ------- null}
h -t 2.8514752 -s 0 -d 1 -p sctp -e 1500 -c 1 -i 22 -a 1 -x {0.0 2.0 -1 ------- null}
r -t 2.9314752 -s 0 -d 1 -p sctp -e 1500 -c 1 -i 21 -a 1 -x {0.0 2.0 -1 ------- null}
+ -t 2.9314752 -s 1 -d 2 -p sctp -e 1500 -c 1 -i 21 -a 1 -x {0.0 2.0 -1 ------- null}
r -t 2.9326752 -s 0 -d 1 -p sctp -e 1500 -c 1 -i 22 -a 1 -x {0.0 2.0 -1 ------- null}
+ -t 2.9326752 -s 1 -d 2 -p sctp -e 1500 -c 1 -i 22 -a 1 -x {0.0 2.0 -1 ------- null}
+ -t 2.9806368 -s 2 -d 1 -p sctp -e 48 -c 0 -i 23 -a 0 -x {2.0 0.0 -1 ------- null}
- -t 2.9806368 -s 2 -d 1 -p sctp -e 48 -c 0 -i 23 -a 0 -x {2.0 0.0 -1 ------- null}
h -t 2.9806368 -s 2 -d 1 -p sctp -e 48 -c 0 -i 23 -a 0 -x {2.0 0.0 -1 ------- null}
- -t 3.0006368 -s 1 -d 2 -p sctp -e 1500 -c 1 -i 16 -a 1 -x {0.0 2.0 -1 ------- null}
h -t 3.0006368 -s 1 -d 2 -p sctp -e 1500 -c 1 -i 16 -a 1 -x {0.0 2.0 -1 ------- null}
r -t 3.0702368 -s 2 -d 1 -p sctp -e 48 -c 0 -i 23 -a 0 -x {2.0 0.0 -1 ------- null}
+ -t 3.0702368 -s 1 -d 0 -p sctp -e 48 -c 0 -i 23 -a 0 -x {2.0 0.0 -1 ------- null}
- -t 3.0702368 -s 1 -d 0 -p sctp -e 48 -c 0 -i 23 -a 0 -x {2.0 0.0 -1 ------- null}
h -t 3.0702368 -s 1 -d 0 -p sctp -e 48 -c 0 -i 23 -a 0 -x {2.0 0.0 -1 ------- null}
r -t 3.0806368 -s 1 -d 2 -p sctp -e 1500 -c 1 -i 15 -a 1 -x {0.0 2.0 -1 ------- null}
r -t 3.1502752 -s 1 -d 0 -p sctp -e 48 -c 0 -i 23 -a 0 -x {2.0 0.0 -1 ------- null}
+ -t 3.1502752 -s 0 -d 1 -p sctp -e 1500 -c 1 -i 24 -a 1 -x {0.0 2.0 -1 ------- null}
- -t 3.1502752 -s 0 -d 1 -p sctp -e 1500 -c 1 -i 24 -a 1 -x {0.0 2.0 -1 ------- null}
h -t 3.1502752 -s 0 -d 1 -p sctp -e 1500 -c 1 -i 24 -a 1 -x {0.0 2.0 -1 ------- null}
+ -t 3.1502752 -s 0 -d 1 -p sctp -e 1500 -c 1 -i 25 -a 1 -x {0.0 2.0 -1 ------- null}
- -t 3.1514752 -s 0 -d 1 -p sctp -e 1500 -c 1 -i 25 -a 1 -x {0.0 2.0 -1 ------- null}
h -t 3.1514752 -s 0 -d 1 -p sctp -e 1500 -c 1 -i 25 -a 1 -x {0.0 2.0 -1 ------- null}
r -t 3.2314752 -s 0 -d 1 -p sctp -e 1500 -c 1 -i 24 -a 1 -x {0.0 2.0 -1 ------- null}
+ -t 3.2314752 -s 1 -d 2 -p sctp -e 1500 -c 1 -i 24 -a 1 -x {0.0 2.0 -1 ------- null}
r -t 3.2326752 -s 0 -d 1 -p sctp -e 1500 -c 1 -i 25 -a 1 -x {0.0 2.0 -1 ------- null}
+ -t 3.2326752 -s 1 -d 2 -p sctp -e 1500 -c 1 -i 25 -a 1 -x {0.0 2.0 -1 ------- null}
+ -t 3.2806368 -s 2 -d 1 -p sctp -e 48 -c 0 -i 26 -a 0 -x {2.0 0.0 -1 ------- null}
- -t 3.2806368 -s 2 -d 1 -p sctp -e 48 -c 0 -i 26 -a 0 -x {2.0 0.0 -1 ------- null}
h -t 3.2806368 -s 2 -d 1 -p sctp -e 48 -c 0 -i 26 -a 0 -x {2.0 0.0 -1 ------- null}
- -t 3.3006368 -s 1 -d 2 -p sctp -e 1500 -c 1 -i 18 -a 1 -x {0.0 2.0 -1 ------- null}
h -t 3.3006368 -s 1 -d 2 -p sctp -e 1500 -c 1 -i 18 -a 1 -x {0.0 2.0 -1 ------- null}
r -t 3.3702368 -s 2 -d 1 -p sctp -e 48 -c 0 -i 26 -a 0 -x {2.0 0.0 -1 ------- null}
+ -t 3.3702368 -s 1 -d 0 -p sctp -e 48 -c 0 -i 26 -a 0 -x {2.0 0.0 -1 ------- null}
- -t 3.3702368 -s 1 -d 0 -p sctp -e 48 -c 0 -i 26 -a 0 -x {2.0 0.0 -1 ------- null}
h -t 3.3702368 -s 1 -d 0 -p sctp -e 48 -c 0 -i 26 -a 0 -x {2.0 0.0 -1 ------- null}
r -t 3.3806368 -s 1 -d 2 -p sctp -e 1500 -c 1 -i 16 -a 1 -x {0.0 2.0 -1 ------- null}
r -t 3.4502752 -s 1 -d 0 -p sctp -e 48 -c 0 -i 26 -a 0 -x {2.0 0.0 -1 ------- null}
+ -t 3.4502752 -s 0 -d 1 -p sctp -e 1500 -c 1 -i 27 -a 1 -x {0.0 2.0 -1 ------- null}
- -t 3.4502752 -s 0 -d 1 -p sctp -e 1500 -c 1 -i 27 -a 1 -x {0.0 2.0 -1 ------- null}
h -t 3.4502752 -s 0 -d 1 -p sctp -e 1500 -c 1 -i 27 -a 1 -x {0.0 2.0 -1 ------- null}
+ -t 3.4502752 -s 0 -d 1 -p sctp -e 1500 -c 1 -i 28 -a 1 -x {0.0 2.0 -1 ------- null}
- -t 3.4514752 -s 0 -d 1 -p sctp -e 1500 -c 1 -i 28 -a 1 -x {0.0 2.0 -1 ------- null}
h -t 3.4514752 -s 0 -d 1 -p sctp -e 1500 -c 1 -i 28 -a 1 -x {0.0 2.0 -1 ------- null}
r -t 3.5314752 -s 0 -d 1 -p sctp -e 1500 -c 1 -i 27 -a 1 -x {0.0 2.0 -1 ------- null}
+ -t 3.5314752 -s 1 -d 2 -p sctp -e 1500 -c 1 -i 27 -a 1 -x {0.0 2.0 -1 ------- null}
r -t 3.5326752 -s 0 -d 1 -p sctp -e 1500 -c 1 -i 28 -a 1 -x {0.0 2.0 -1 ------- null}
+ -t 3.5326752 -s 1 -d 2 -p sctp -e 1500 -c 1 -i 28 -a 1 -x {0.0 2.0 -1 ------- null}
+ -t 3.5806368 -s 2 -d 1 -p sctp -e 48 -c 0 -i 29 -a 0 -x {2.0 0.0 -1 ------- null}
- -t 3.5806368 -s 2 -d 1 -p sctp -e 48 -c 0 -i 29 -a 0 -x {2.0 0.0 -1 ------- null}
h -t 3.5806368 -s 2 -d 1 -p sctp -e 48 -c 0 -i 29 -a 0 -x {2.0 0.0 -1 ------- null}
- -t 3.6006368 -s 1 -d 2 -p sctp -e 1500 -c 1 -i 19 -a 1 -x {0.0 2.0 -1 ------- null}
h -t 3.6006368 -s 1 -d 2 -p sctp -e 1500 -c 1 -i 19 -a 1 -x {0.0 2.0 -1 ------- null}
r -t 3.6702368 -s 2 -d 1 -p sctp -e 48 -c 0 -i 29 -a 0 -x {2.0 0.0 -1 ------- null}
+ -t 3.6702368 -s 1 -d 0 -p sctp -e 48 -c 0 -i 29 -a 0 -x {2.0 0.0 -1 ------- null}
- -t 3.6702368 -s 1 -d 0 -p sctp -e 48 -c 0 -i 29 -a 0 -x {2.0 0.0 -1 ------- null}
h -t 3.6702368 -s 1 -d 0 -p sctp -e 48 -c 0 -i 29 -a 0 -x {2.0 0.0 -1 ------- null}
r -t 3.6806368 -s 1 -d 2 -p sctp -e 1500 -c 1 -i 18 -a 1 -x {0.0 2.0 -1 ------- null}
r -t 3.7502752 -s 1 -d 0 -p sctp -e 48 -c 0 -i 29 -a 0 -x {2.0 0.0 -1 ------- null}
+ -t 3.7502752 -s 0 -d 1 -p sctp -e 1500 -c 1 -i 30 -a 1 -x {0.0 2.0 -1 ------- null}
- -t 3.7502752 -s 0 -d 1 -p sctp -e 1500 -c 1 -i 30 -a 1 -x {0.0 2.0 -1 ------- null}
h -t 3.7502752 -s 0 -d 1 -p sctp -e 1500 -c 1 -i 30 -a 1 -x {0.0 2.0 -1 ------- null}
+ -t 3.7502752 -s 0 -d 1 -p sctp -e 1500 -c 1 -i 31 -a 1 -x {0.0 2.0 -1 ------- null}
- -t 3.7514752 -s 0 -d 1 -p sctp -e 1500 -c 1 -i 31 -a 1 -x {0.0 2.0 -1 ------- null}
h -t 3.7514752 -s 0 -d 1 -p sctp -e 1500 -c 1 -i 31 -a 1 -x {0.0 2.0 -1 ------- null}
r -t 3.8314752 -s 0 -d 1 -p sctp -e 1500 -c 1 -i 30 -a 1 -x {0.0 2.0 -1 ------- null}
+ -t 3.8314752 -s 1 -d 2 -p sctp -e 1500 -c 1 -i 30 -a 1 -x {0.0 2.0 -1 ------- null}
r -t 3.8326752 -s 0 -d 1 -p sctp -e 1500 -c 1 -i 31 -a 1 -x {0.0 2.0 -1 ------- null}
+ -t 3.8326752 -s 1 -d 2 -p sctp -e 1500 -c 1 -i 31 -a 1 -x {0.0 2.0 -1 ------- null}
+ -t 3.8806368 -s 2 -d 1 -p sctp -e 48 -c 0 -i 32 -a 0 -x {2.0 0.0 -1 ------- null}
- -t 3.8806368 -s 2 -d 1 -p sctp -e 48 -c 0 -i 32 -a 0 -x {2.0 0.0 -1 ------- null}
h -t 3.8806368 -s 2 -d 1 -p sctp -e 48 -c 0 -i 32 -a 0 -x {2.0 0.0 -1 ------- null}
- -t 3.9006368 -s 1 -d 2 -p sctp -e 1500 -c 1 -i 21 -a 1 -x {0.0 2.0 -1 ------- null}
h -t 3.9006368 -s 1 -d 2 -p sctp -e 1500 -c 1 -i 21 -a 1 -x {0.0 2.0 -1 ------- null}
r -t 3.9702368 -s 2 -d 1 -p sctp -e 48 -c 0 -i 32 -a 0 -x {2.0 0.0 -1 ------- null}
+ -t 3.9702368 -s 1 -d 0 -p sctp -e 48 -c 0 -i 32 -a 0 -x {2.0 0.0 -1 ------- null}
- -t 3.9702368 -s 1 -d 0 -p sctp -e 48 -c 0 -i 32 -a 0 -x {2.0 0.0 -1 ------- null}
h -t 3.9702368 -s 1 -d 0 -p sctp -e 48 -c 0 -i 32 -a 0 -x {2.0 0.0 -1 ------- null}
r -t 3.9806368 -s 1 -d 2 -p sctp -e 1500 -c 1 -i 19 -a 1 -x {0.0 2.0 -1 ------- null}
r -t 4.0502752 -s 1 -d 0 -p sctp -e 48 -c 0 -i 32 -a 0 -x {2.0 0.0 -1 ------- null}
+ -t 4.0502752 -s 0 -d 1 -p sctp -e 1500 -c 1 -i 33 -a 1 -x {0.0 2.0 -1 ------- null}
- -t 4.0502752 -s 0 -d 1 -p sctp -e 1500 -c 1 -i 33 -a 1 -x {0.0 2.0 -1 ------- null}
h -t 4.0502752 -s 0 -d 1 -p sctp -e 1500 -c 1 -i 33 -a 1 -x {0.0 2.0 -1 ------- null}
+ -t 4.0502752 -s 0 -d 1 -p sctp -e 1500 -c 1 -i 34 -a 1 -x {0.0 2.0 -1 ------- null}
- -t 4.0514752 -s 0 -d 1 -p sctp -e 1500 -c 1 -i 34 -a 1 -x {0.0 2.0 -1 ------- null}
h -t 4.0514752 -s 0 -d 1 -p sctp -e 1500 -c 1 -i 34 -a 1 -x {0.0 2.0 -1 ------- null}
r -t 4.1314752 -s 0 -d 1 -p sctp -e 1500 -c 1 -i 33 -a 1 -x {0.0 2.0 -1 ------- null}
+ -t 4.1314752 -s 1 -d 2 -p sctp -e 1500 -c 1 -i 33 -a 1 -x {0.0 2.0 -1 ------- null}
r -t 4.1326752 -s 0 -d 1 -p sctp -e 1500 -c 1 -i 34 -a 1 -x {0.0 2.0 -1 ------- null}
+ -t 4.1326752 -s 1 -d 2 -p sctp -e 1500 -c 1 -i 34 -a 1 -x {0.0 2.0 -1 ------- null}
+ -t 4.1806368 -s 2 -d 1 -p sctp -e 48 -c 0 -i 35 -a 0 -x {2.0 0.0 -1 ------- null}
- -t 4.1806368 -s 2 -d 1 -p sctp -e 48 -c 0 -i 35 -a 0 -x {2.0 0.0 -1 ------- null}
h -t 4.1806368 -s 2 -d 1 -p sctp -e 48 -c 0 -i 35 -a 0 -x {2.0 0.0 -1 ------- null}
- -t 4.2006368 -s 1 -d 2 -p sctp -e 1500 -c 1 -i 22 -a 1 -x {0.0 2.0 -1 ------- null}
h -t 4.2006368 -s 1 -d 2 -p sctp -e 1500 -c 1 -i 22 -a 1 -x {0.0 2.0 -1 ------- null}
r -t 4.2702368 -s 2 -d 1 -p sctp -e 48 -c 0 -i 35 -a 0 -x {2.0 0.0 -1 ------- null}
+ -t 4.2702368 -s 1 -d 0 -p sctp -e 48 -c 0 -i 35 -a 0 -x {2.0 0.0 -1 ------- null}
- -t 4.2702368 -s 1 -d 0 -p sctp -e 48 -c 0 -i 35 -a 0 -x {2.0 0.0 -1 ------- null}
h -t 4.2702368 -s 1 -d 0 -p sctp -e 48 -c 0 -i 35 -a 0 -x {2.0 0.0 -1 ------- null}
r -t 4.2806368 -s 1 -d 2 -p sctp -e 1500 -c 1 -i 21 -a 1 -x {0.0 2.0 -1 ------- null}
r -t 4.3502752 -s 1 -d 0 -p sctp -e 48 -c 0 -i 35 -a 0 -x {2.0 0.0 -1 ------- null}
+ -t 4.3502752 -s 0 -d 1 -p sctp -e 1500 -c 1 -i 36 -a 1 -x {0.0 2.0 -1 ------- null}
- -t 4.3502752 -s 0 -d 1 -p sctp -e 1500 -c 1 -i 36 -a 1 -x {0.0 2.0 -1 ------- null}
h -t 4.3502752 -s 0 -d 1 -p sctp -e 1500 -c 1 -i 36 -a 1 -x {0.0 2.0 -1 ------- null}
+ -t 4.3502752 -s 0 -d 1 -p sctp -e 1500 -c 1 -i 37 -a 1 -x {0.0 2.0 -1 ------- null}
- -t 4.3514752 -s 0 -d 1 -p sctp -e 1500 -c 1 -i 37 -a 1 -x {0.0 2.0 -1 ------- null}
h -t 4.3514752 -s 0 -d 1 -p sctp -e 1500 -c 1 -i 37 -a 1 -x {0.0 2.0 -1 ------- null}
r -t 4.4314752 -s 0 -d 1 -p sctp -e 1500 -c 1 -i 36 -a 1 -x {0.0 2.0 -1 ------- null}
+ -t 4.4314752 -s 1 -d 2 -p sctp -e 1500 -c 1 -i 36 -a 1 -x {0.0 2.0 -1 ------- null}
r -t 4.4326752 -s 0 -d 1 -p sctp -e 1500 -c 1 -i 37 -a 1 -x {0.0 2.0 -1 ------- null}
+ -t 4.4326752 -s 1 -d 2 -p sctp -e 1500 -c 1 -i 37 -a 1 -x {0.0 2.0 -1 ------- null}
+ -t 4.4806368 -s 2 -d 1 -p sctp -e 48 -c 0 -i 38 -a 0 -x {2.0 0.0 -1 ------- null}
- -t 4.4806368 -s 2 -d 1 -p sctp -e 48 -c 0 -i 38 -a 0 -x {2.0 0.0 -1 ------- null}
h -t 4.4806368 -s 2 -d 1 -p sctp -e 48 -c 0 -i 38 -a 0 -x {2.0 0.0 -1 ------- null}
- -t 4.5006368 -s 1 -d 2 -p sctp -e 1500 -c 1 -i 24 -a 1 -x {0.0 2.0 -1 ------- null}
h -t 4.5006368 -s 1 -d 2 -p sctp -e 1500 -c 1 -i 24 -a 1 -x {0.0 2.0 -1 ------- null}
r -t 4.5702368 -s 2 -d 1 -p sctp -e 48 -c 0 -i 38 -a 0 -x {2.0 0.0 -1 ------- null}
+ -t 4.5702368 -s 1 -d 0 -p sctp -e 48 -c 0 -i 38 -a 0 -x {2.0 0.0 -1 ------- null}
- -t 4.5702368 -s 1 -d 0 -p sctp -e 48 -c 0 -i 38 -a 0 -x {2.0 0.0 -1 ------- null}
h -t 4.5702368 -s 1 -d 0 -p sctp -e 48 -c 0 -i 38 -a 0 -x {2.0 0.0 -1 ------- null}
r -t 4.5806368 -s 1 -d 2 -p sctp -e 1500 -c 1 -i 22 -a 1 -x {0.0 2.0 -1 ------- null}
r -t 4.6502752 -s 1 -d 0 -p sctp -e 48 -c 0 -i 38 -a 0 -x {2.0 0.0 -1 ------- null}
+ -t 4.6502752 -s 0 -d 1 -p sctp -e 1500 -c 1 -i 39 -a 1 -x {0.0 2.0 -1 ------- null}
- -t 4.6502752 -s 0 -d 1 -p sctp -e 1500 -c 1 -i 39 -a 1 -x {0.0 2.0 -1 ------- null}
h -t 4.6502752 -s 0 -d 1 -p sctp -e 1500 -c 1 -i 39 -a 1 -x {0.0 2.0 -1 ------- null}
+ -t 4.6502752 -s 0 -d 1 -p sctp -e 1500 -c 1 -i 40 -a 1 -x {0.0 2.0 -1 ------- null}
- -t 4.6514752 -s 0 -d 1 -p sctp -e 1500 -c 1 -i 40 -a 1 -x {0.0 2.0 -1 ------- null}
h -t 4.6514752 -s 0 -d 1 -p sctp -e 1500 -c 1 -i 40 -a 1 -x {0.0 2.0 -1 ------- null}
r -t 4.7314752 -s 0 -d 1 -p sctp -e 1500 -c 1 -i 39 -a 1 -x {0.0 2.0 -1 ------- null}
+ -t 4.7314752 -s 1 -d 2 -p sctp -e 1500 -c 1 -i 39 -a 1 -x {0.0 2.0 -1 ------- null}
r -t 4.7326752 -s 0 -d 1 -p sctp -e 1500 -c 1 -i 40 -a 1 -x {0.0 2.0 -1 ------- null}
+ -t 4.7326752 -s 1 -d 2 -p sctp -e 1500 -c 1 -i 40 -a 1 -x {0.0 2.0 -1 ------- null}
+ -t 4.7806368 -s 2 -d 1 -p sctp -e 48 -c 0 -i 41 -a 0 -x {2.0 0.0 -1 ------- null}
- -t 4.7806368 -s 2 -d 1 -p sctp -e 48 -c 0 -i 41 -a 0 -x {2.0 0.0 -1 ------- null}
h -t 4.7806368 -s 2 -d 1 -p sctp -e 48 -c 0 -i 41 -a 0 -x {2.0 0.0 -1 ------- null}
- -t 4.8006368 -s 1 -d 2 -p sctp -e 1500 -c 1 -i 25 -a 1 -x {0.0 2.0 -1 ------- null}
h -t 4.8006368 -s 1 -d 2 -p sctp -e 1500 -c 1 -i 25 -a 1 -x {0.0 2.0 -1 ------- null}
r -t 4.8702368 -s 2 -d 1 -p sctp -e 48 -c 0 -i 41 -a 0 -x {2.0 0.0 -1 ------- null}
+ -t 4.8702368 -s 1 -d 0 -p sctp -e 48 -c 0 -i 41 -a 0 -x {2.0 0.0 -1 ------- null}
- -t 4.8702368 -s 1 -d 0 -p sctp -e 48 -c 0 -i 41 -a 0 -x {2.0 0.0 -1 ------- null}
h -t 4.8702368 -s 1 -d 0 -p sctp -e 48 -c 0 -i 41 -a 0 -x {2.0 0.0 -1 ------- null}
r -t 4.8806368 -s 1 -d 2 -p sctp -e 1500 -c 1 -i 24 -a 1 -x {0.0 2.0 -1 ------- null}
r -t 4.9502752 -s 1 -d 0 -p sctp -e 48 -c 0 -i 41 -a 0 -x {2.0 0.0 -1 ------- null}
+ -t 4.9502752 -s 0 -d 1 -p sctp -e 1500 -c 1 -i 42 -a 1 -x {0.0 2.0 -1 ------- null}
- -t 4.9502752 -s 0 -d 1 -p sctp -e 1500 -c 1 -i 42 -a 1 -x {0.0 2.0 -1 ------- null}
h -t 4.9502752 -s 0 -d 1 -p sctp -e 1500 -c 1 -i 42 -a 1 -x {0.0 2.0 -1 ------- null}
+ -t 4.9502752 -s 0 -d 1 -p sctp -e 1500 -c 1 -i 43 -a 1 -x {0.0 2.0 -1 ------- null}
- -t 4.9514752 -s 0 -d 1 -p sctp -e 1500 -c 1 -i 43 -a 1 -x {0.0 2.0 -1 ------- null}
h -t 4.9514752 -s 0 -d 1 -p sctp -e 1500 -c 1 -i 43 -a 1 -x {0.0 2.0 -1 ------- null}
r -t 5.0314752 -s 0 -d 1 -p sctp -e 1500 -c 1 -i 42 -a 1 -x {0.0 2.0 -1 ------- null}
+ -t 5.0314752 -s 1 -d 2 -p sctp -e 1500 -c 1 -i 42 -a 1 -x {0.0 2.0 -1 ------- null}
r -t 5.0326752 -s 0 -d 1 -p sctp -e 1500 -c 1 -i 43 -a 1 -x {0.0 2.0 -1 ------- null}
+ -t 5.0326752 -s 1 -d 2 -p sctp -e 1500 -c 1 -i 43 -a 1 -x {0.0 2.0 -1 ------- null}
+ -t 5.0806368 -s 2 -d 1 -p sctp -e 48 -c 0 -i 44 -a 0 -x {2.0 0.0 -1 ------- null}
- -t 5.0806368 -s 2 -d 1 -p sctp -e 48 -c 0 -i 44 -a 0 -x {2.0 0.0 -1 ------- null}
h -t 5.0806368 -s 2 -d 1 -p sctp -e 48 -c 0 -i 44 -a 0 -x {2.0 0.0 -1 ------- null}
- -t 5.1006368 -s 1 -d 2 -p sctp -e 1500 -c 1 -i 27 -a 1 -x {0.0 2.0 -1 ------- null}
h -t 5.1006368 -s 1 -d 2 -p sctp -e 1500 -c 1 -i 27 -a 1 -x {0.0 2.0 -1 ------- null}
r -t 5.1702368 -s 2 -d 1 -p sctp -e 48 -c 0 -i 44 -a 0 -x {2.0 0.0 -1 ------- null}
+ -t 5.1702368 -s 1 -d 0 -p sctp -e 48 -c 0 -i 44 -a 0 -x {2.0 0.0 -1 ------- null}
- -t 5.1702368 -s 1 -d 0 -p sctp -e 48 -c 0 -i 44 -a 0 -x {2.0 0.0 -1 ------- null}
h -t 5.1702368 -s 1 -d 0 -p sctp -e 48 -c 0 -i 44 -a 0 -x {2.0 0.0 -1 ------- null}
r -t 5.1806368 -s 1 -d 2 -p sctp -e 1500 -c 1 -i 25 -a 1 -x {0.0 2.0 -1 ------- null}
r -t 5.2502752 -s 1 -d 0 -p sctp -e 48 -c 0 -i 44 -a 0 -x {2.0 0.0 -1 ------- null}
+ -t 5.2502752 -s 0 -d 1 -p sctp -e 1500 -c 1 -i 45 -a 1 -x {0.0 2.0 -1 ------- null}
- -t 5.2502752 -s 0 -d 1 -p sctp -e 1500 -c 1 -i 45 -a 1 -x {0.0 2.0 -1 ------- null}
h -t 5.2502752 -s 0 -d 1 -p sctp -e 1500 -c 1 -i 45 -a 1 -x {0.0 2.0 -1 ------- null}
+ -t 5.2502752 -s 0 -d 1 -p sctp -e 1500 -c 1 -i 46 -a 1 -x {0.0 2.0 -1 ------- null}
- -t 5.2514752 -s 0 -d 1 -p sctp -e 1500 -c 1 -i 46 -a 1 -x {0.0 2.0 -1 ------- null}
h -t 5.2514752 -s 0 -d 1 -p sctp -e 1500 -c 1 -i 46 -a 1 -x {0.0 2.0 -1 ------- null}
r -t 5.3314752 -s 0 -d 1 -p sctp -e 1500 -c 1 -i 45 -a 1 -x {0.0 2.0 -1 ------- null}
+ -t 5.3314752 -s 1 -d 2 -p sctp -e 1500 -c 1 -i 45 -a 1 -x {0.0 2.0 -1 ------- null}
r -t 5.3326752 -s 0 -d 1 -p sctp -e 1500 -c 1 -i 46 -a 1 -x {0.0 2.0 -1 ------- null}
+ -t 5.3326752 -s 1 -d 2 -p sctp -e 1500 -c 1 -i 46 -a 1 -x {0.0 2.0 -1 ------- null}
+ -t 5.3806368 -s 2 -d 1 -p sctp -e 48 -c 0 -i 47 -a 0 -x {2.0 0.0 -1 ------- null}
- -t 5.3806368 -s 2 -d 1 -p sctp -e 48 -c 0 -i 47 -a 0 -x {2.0 0.0 -1 ------- null}
h -t 5.3806368 -s 2 -d 1 -p sctp -e 48 -c 0 -i 47 -a 0 -x {2.0 0.0 -1 ------- null}
- -t 5.4006368 -s 1 -d 2 -p sctp -e 1500 -c 1 -i 28 -a 1 -x {0.0 2.0 -1 ------- null}
h -t 5.4006368 -s 1 -d 2 -p sctp -e 1500 -c 1 -i 28 -a 1 -x {0.0 2.0 -1 ------- null}
r -t 5.4702368 -s 2 -d 1 -p sctp -e 48 -c 0 -i 47 -a 0 -x {2.0 0.0 -1 ------- null}
+ -t 5.4702368 -s 1 -d 0 -p sctp -e 48 -c 0 -i 47 -a 0 -x {2.0 0.0 -1 ------- null}
- -t 5.4702368 -s 1 -d 0 -p sctp -e 48 -c 0 -i 47 -a 0 -x {2.0 0.0 -1 ------- null}
h -t 5.4702368 -s 1 -d 0 -p sctp -e 48 -c 0 -i 47 -a 0 -x {2.0 0.0 -1 ------- null}
r -t 5.4806368 -s 1 -d 2 -p sctp -e 1500 -c 1 -i 27 -a 1 -x {0.0 2.0 -1 ------- null}
r -t 5.5502752 -s 1 -d 0 -p sctp -e 48 -c 0 -i 47 -a 0 -x {2.0 0.0 -1 ------- null}
+ -t 5.5502752 -s 0 -d 1 -p sctp -e 1500 -c 1 -i 48 -a 1 -x {0.0 2.0 -1 ------- null}
- -t 5.5502752 -s 0 -d 1 -p sctp -e 1500 -c 1 -i 48 -a 1 -x {0.0 2.0 -1 ------- null}
h -t 5.5502752 -s 0 -d 1 -p sctp -e 1500 -c 1 -i 48 -a 1 -x {0.0 2.0 -1 ------- null}
+ -t 5.5502752 -s 0 -d 1 -p sctp -e 1500 -c 1 -i 49 -a 1 -x {0.0 2.0 -1 ------- null}
- -t 5.5514752 -s 0 -d 1 -p sctp -e 1500 -c 1 -i 49 -a 1 -x {0.0 2.0 -1 ------- null}
h -t 5.5514752 -s 0 -d 1 -p sctp -e 1500 -c 1 -i 49 -a 1 -x {0.0 2.0 -1 ------- null}
r -t 5.6314752 -s 0 -d 1 -p sctp -e 1500 -c 1 -i 48 -a 1 -x {0.0 2.0 -1 ------- null}
+ -t 5.6314752 -s 1 -d 2 -p sctp -e 1500 -c 1 -i 48 -a 1 -x {0.0 2.0 -1 ------- null}
r -t 5.6326752 -s 0 -d 1 -p sctp -e 1500 -c 1 -i 49 -a 1 -x {0.0 2.0 -1 ------- null}
+ -t 5.6326752 -s 1 -d 2 -p sctp -e 1500 -c 1 -i 49 -a 1 -x {0.0 2.0 -1 ------- null}
+ -t 5.6806368 -s 2 -d 1 -p sctp -e 48 -c 0 -i 50 -a 0 -x {2.0 0.0 -1 ------- null}
- -t 5.6806368 -s 2 -d 1 -p sctp -e 48 -c 0 -i 50 -a 0 -x {2.0 0.0 -1 ------- null}
h -t 5.6806368 -s 2 -d 1 -p sctp -e 48 -c 0 -i 50 -a 0 -x {2.0 0.0 -1 ------- null}
- -t 5.7006368 -s 1 -d 2 -p sctp -e 1500 -c 1 -i 30 -a 1 -x {0.0 2.0 -1 ------- null}
h -t 5.7006368 -s 1 -d 2 -p sctp -e 1500 -c 1 -i 30 -a 1 -x {0.0 2.0 -1 ------- null}
r -t 5.7702368 -s 2 -d 1 -p sctp -e 48 -c 0 -i 50 -a 0 -x {2.0 0.0 -1 ------- null}
+ -t 5.7702368 -s 1 -d 0 -p sctp -e 48 -c 0 -i 50 -a 0 -x {2.0 0.0 -1 ------- null}