+ 0.1 0 1 sctp 56 ------- 1 0.0 2.0 -1 2
- 0.1 0 1 sctp 56 ------- 1 0.0 2.0 -1 2
r 0.180045 0 1 sctp 56 ------- 1 0.0 2.0 -1 2
+ 0.180045 1 2 sctp 56 ------- 1 0.0 2.0 -1 2
- 0.180045 1 2 sctp 56 ------- 1 0.0 2.0 -1 2
r 0.261165 1 2 sctp 56 ------- 1 0.0 2.0 -1 2
+ 0.261165 2 1 sctp 56 ------- 0 2.0 0.0 -1 3
- 0.261165 2 1 sctp 56 ------- 0 2.0 0.0 -1 3
r 0.342285 2 1 sctp 56 ------- 0 2.0 0.0 -1 3
+ 0.342285 1 0 sctp 56 ------- 0 2.0 0.0 -1 3
- 0.342285 1 0 sctp 56 ------- 0 2.0 0.0 -1 3
r 0.42233 1 0 sctp 56 ------- 0 2.0 0.0 -1 3
+ 0.42233 0 1 sctp 36 ------- 1 0.0 2.0 -1 4
- 0.42233 0 1 sctp 36 ------- 1 0.0 2.0 -1 4
r 0.502358 0 1 sctp 36 ------- 1 0.0 2.0 -1 4
+ 0.502358 1 2 sctp 36 ------- 1 0.0 2.0 -1 4
- 0.502358 1 2 sctp 36 ------- 1 0.0 2.0 -1 4
r 0.583078 1 2 sctp 36 ------- 1 0.0 2.0 -1 4
+ 0.583078 2 1 sctp 36 ------- 0 2.0 0.0 -1 5
- 0.583078 2 1 sctp 36 ------- 0 2.0 0.0 -1 5
r 0.663798 2 1 sctp 36 ------- 0 2.0 0.0 -1 5
+ 0.663798 1 0 sctp 36 ------- 0 2.0 0.0 -1 5
- 0.663798 1 0 sctp 36 ------- 0 2.0 0.0 -1 5
r 0.743827 1 0 sctp 36 ------- 0 2.0 0.0 -1 5
+ 0.743827 0 1 sctp 56 ------- 1 0.0 2.0 -1 6
- 0.743827 0 1 sctp 56 ------- 1 0.0 2.0 -1 6
r 0.823872 0 1 sctp 56 ------- 1 0.0 2.0 -1 6
+ 0.823872 1 2 sctp 56 ------- 1 0.0 2.0 -1 6
- 0.823872 1 2 sctp 56 ------- 1 0.0 2.0 -1 6
r 0.904992 1 2 sctp 56 ------- 1 0.0 2.0 -1 6
+ 0.904992 2 1 sctp 56 ------- 0 2.0 0.0 -1 7
- 0.904992 2 1 sctp 56 ------- 0 2.0 0.0 -1 7
r 0.986112 2 1 sctp 56 ------- 0 2.0 0.0 -1 7
+ 0.986112 1 0 sctp 56 ------- 0 2.0 0.0 -1 7
- 0.986112 1 0 sctp 56 ------- 0 2.0 0.0 -1 7
r 1.066157 1 0 sctp 56 ------- 0 2.0 0.0 -1 7
+ 1.066157 0 1 sctp 1500 ------- 1 0.0 2.0 -1 8
- 1.066157 0 1 sctp 1500 ------- 1 0.0 2.0 -1 8
+ 1.066157 0 1 sctp 1500 ------- 1 0.0 2.0 -1 9
+ 1.066157 0 1 sctp 1500 ------- 1 0.0 2.0 -1 10
- 1.067357 0 1 sctp 1500 ------- 1 0.0 2.0 -1 9
- 1.068557 0 1 sctp 1500 ------- 1 0.0 2.0 -1 10
r 1.147357 0 1 sctp 1500 ------- 1 0.0 2.0 -1 8
+ 1.147357 1 2 sctp 1500 ------- 1 0.0 2.0 -1 8
- 1.147357 1 2 sctp 1500 ------- 1 0.0 2.0 -1 8
r 1.148557 0 1 sctp 1500 ------- 1 0.0 2.0 -1 9
+ 1.148557 1 2 sctp 1500 ------- 1 0.0 2.0 -1 9
r 1.149757 0 1 sctp 1500 ------- 1 0.0 2.0 -1 10
+ 1.149757 1 2 sctp 1500 ------- 1 0.0 2.0 -1 10
- 1.177357 1 2 sctp 1500 ------- 1 0.0 2.0 -1 9
- 1.207357 1 2 sctp 1500 ------- 1 0.0 2.0 -1 10
r 1.257357 1 2 sctp 1500 ------- 1 0.0 2.0 -1 8
+ 1.257357 2 1 sctp 48 ------- 0 2.0 0.0 -1 11
- 1.257357 2 1 sctp 48 ------- 0 2.0 0.0 -1 11
r 1.287357 1 2 sctp 1500 ------- 1 0.0 2.0 -1 9
r 1.317357 1 2 sctp 1500 ------- 1 0.0 2.0 -1 10
+ 1.317357 2 1 sctp 48 ------- 0 2.0 0.0 -1 12
- 1.317357 2 1 sctp 48 ------- 0 2.0 0.0 -1 12
r 1.338317 2 1 sctp 48 ------- 0 2.0 0.0 -1 11
+ 1.338317 1 0 sctp 48 ------- 0 2.0 0.0 -1 11
- 1.338317 1 0 sctp 48 ------- 0 2.0 0.0 -1 11
r 1.398317 2 1 sctp 48 ------- 0 2.0 0.0 -1 12
+ 1.398317 1 0 sctp 48 ------- 0 2.0 0.0 -1 12
- 1.398317 1 0 sctp 48 ------- 0 2.0 0.0 -1 12
r 1.418355 1 0 sctp 48 ------- 0 2.0 0.0 -1 11
+ 1.418355 0 1 sctp 1500 ------- 1 0.0 2.0 -1 13
- 1.418355 0 1 sctp 1500 ------- 1 0.0 2.0 -1 13
+ 1.418355 0 1 sctp 1500 ------- 1 0.0 2.0 -1 14
- 1.419555 0 1 sctp 1500 ------- 1 0.0 2.0 -1 14
r 1.478355 1 0 sctp 48 ------- 0 2.0 0.0 -1 12
+ 1.478355 0 1 sctp 1500 ------- 1 0.0 2.0 -1 15
- 1.478355 0 1 sctp 1500 ------- 1 0.0 2.0 -1 15
+ 1.478355 0 1 sctp 1500 ------- 1 0.0 2.0 -1 16
+ 1.478355 0 1 sctp 1500 ------- 1 0.0 2.0 -1 17
- 1.479555 0 1 sctp 1500 ------- 1 0.0 2.0 -1 16
- 1.480755 0 1 sctp 1500 ------- 1 0.0 2.0 -1 17
r 1.499555 0 1 sctp 1500 ------- 1 0.0 2.0 -1 13
+ 1.499555 1 2 sctp 1500 ------- 1 0.0 2.0 -1 13
- 1.499555 1 2 sctp 1500 ------- 1 0.0 2.0 -1 13
r 1.500755 0 1 sctp 1500 ------- 1 0.0 2.0 -1 14
+ 1.500755 1 2 sctp 1500 ------- 1 0.0 2.0 -1 14
- 1.529555 1 2 sctp 1500 ------- 1 0.0 2.0 -1 14
r 1.559555 0 1 sctp 1500 ------- 1 0.0 2.0 -1 15
+ 1.559555 1 2 sctp 1500 ------- 1 0.0 2.0 -1 15
- 1.559555 1 2 sctp 1500 ------- 1 0.0 2.0 -1 15
r 1.560755 0 1 sctp 1500 ------- 1 0.0 2.0 -1 16
+ 1.560755 1 2 sctp 1500 ------- 1 0.0 2.0 -1 16
r 1.561955 0 1 sctp 1500 ------- 1 0.0 2.0 -1 17
+ 1.561955 1 2 sctp 1500 ------- 1 0.0 2.0 -1 17
- 1.589555 1 2 sctp 1500 ------- 1 0.0 2.0 -1 16
r 1.609555 1 2 sctp 1500 ------- 1 0.0 2.0 -1 13
- 1.619555 1 2 sctp 1500 ------- 1 0.0 2.0 -1 17
r 1.639555 1 2 sctp 1500 ------- 1 0.0 2.0 -1 14
+ 1.639555 2 1 sctp 48 ------- 0 2.0 0.0 -1 18
- 1.639555 2 1 sctp 48 ------- 0 2.0 0.0 -1 18
r 1.669555 1 2 sctp 1500 ------- 1 0.0 2.0 -1 15
r 1.699555 1 2 sctp 1500 ------- 1 0.0 2.0 -1 16
+ 1.699555 2 1 sctp 48 ------- 0 2.0 0.0 -1 19
- 1.699555 2 1 sctp 48 ------- 0 2.0 0.0 -1 19
r 1.720515 2 1 sctp 48 ------- 0 2.0 0.0 -1 18
+ 1.720515 1 0 sctp 48 ------- 0 2.0 0.0 -1 18
- 1.720515 1 0 sctp 48 ------- 0 2.0 0.0 -1 18
r 1.729555 1 2 sctp 1500 ------- 1 0.0 2.0 -1 17
r 1.780515 2 1 sctp 48 ------- 0 2.0 0.0 -1 19
+ 1.780515 1 0 sctp 48 ------- 0 2.0 0.0 -1 19
- 1.780515 1 0 sctp 48 ------- 0 2.0 0.0 -1 19
r 1.800554 1 0 sctp 48 ------- 0 2.0 0.0 -1 18
+ 1.800554 0 1 sctp 1500 ------- 1 0.0 2.0 -1 20
- 1.800554 0 1 sctp 1500 ------- 1 0.0 2.0 -1 20
+ 1.800554 0 1 sctp 1500 ------- 1 0.0 2.0 -1 21
+ 1.800554 0 1 sctp 1500 ------- 1 0.0 2.0 -1 22
- 1.801754 0 1 sctp 1500 ------- 1 0.0 2.0 -1 21
- 1.802954 0 1 sctp 1500 ------- 1 0.0 2.0 -1 22
r 1.860554 1 0 sctp 48 ------- 0 2.0 0.0 -1 19
+ 1.860554 0 1 sctp 1500 ------- 1 0.0 2.0 -1 23
- 1.860554 0 1 sctp 1500 ------- 1 0.0 2.0 -1 23
+ 1.860554 0 1 sctp 1500 ------- 1 0.0 2.0 -1 24
+ 1.860554 0 1 sctp 1500 ------- 1 0.0 2.0 -1 25
- 1.861754 0 1 sctp 1500 ------- 1 0.0 2.0 -1 24
- 1.862954 0 1 sctp 1500 ------- 1 0.0 2.0 -1 25
r 1.881754 0 1 sctp 1500 ------- 1 0.0 2.0 -1 20
+ 1.881754 1 2 sctp 1500 ------- 1 0.0 2.0 -1 20
- 1.881754 1 2 sctp 1500 ------- 1 0.0 2.0 -1 20
r 1.882954 0 1 sctp 1500 ------- 1 0.0 2.0 -1 21
+ 1.882954 1 2 sctp 1500 ------- 1 0.0 2.0 -1 21
r 1.884154 0 1 sctp 1500 ------- 1 0.0 2.0 -1 22
+ 1.884154 1 2 sctp 1500 ------- 1 0.0 2.0 -1 22
- 1.911754 1 2 sctp 1500 ------- 1 0.0 2.0 -1 21
+ 1.929555 2 1 sctp 48 ------- 0 2.0 0.0 -1 26
- 1.929555 2 1 sctp 48 ------- 0 2.0 0.0 -1 26
r 1.941754 0 1 sctp 1500 ------- 1 0.0 2.0 -1 23
+ 1.941754 1 2 sctp 1500 ------- 1 0.0 2.0 -1 23
- 1.941754 1 2 sctp 1500 ------- 1 0.0 2.0 -1 22
r 1.942954 0 1 sctp 1500 ------- 1 0.0 2.0 -1 24
+ 1.942954 1 2 sctp 1500 ------- 1 0.0 2.0 -1 24
r 1.944154 0 1 sctp 1500 ------- 1 0.0 2.0 -1 25
+ 1.944154 1 2 sctp 1500 ------- 1 0.0 2.0 -1 25
- 1.971754 1 2 sctp 1500 ------- 1 0.0 2.0 -1 23
r 1.991754 1 2 sctp 1500 ------- 1 0.0 2.0 -1 20
- 2.001754 1 2 sctp 1500 ------- 1 0.0 2.0 -1 24
r 2.010515 2 1 sctp 48 ------- 0 2.0 0.0 -1 26
+ 2.010515 1 0 sctp 48 ------- 0 2.0 0.0 -1 26
- 2.010515 1 0 sctp 48 ------- 0 2.0 0.0 -1 26
r 2.021754 1 2 sctp 1500 ------- 1 0.0 2.0 -1 21
+ 2.021754 2 1 sctp 48 ------- 0 2.0 0.0 -1 27
- 2.021754 2 1 sctp 48 ------- 0 2.0 0.0 -1 27
- 2.031754 1 2 sctp 1500 ------- 1 0.0 2.0 -1 25
r 2.051754 1 2 sctp 1500 ------- 1 0.0 2.0 -1 22
r 2.081754 1 2 sctp 1500 ------- 1 0.0 2.0 -1 23
+ 2.081754 2 1 sctp 48 ------- 0 2.0 0.0 -1 28
- 2.081754 2 1 sctp 48 ------- 0 2.0 0.0 -1 28
r 2.090554 1 0 sctp 48 ------- 0 2.0 0.0 -1 26
+ 2.090554 0 1 sctp 1500 ------- 1 0.0 2.0 -1 29
- 2.090554 0 1 sctp 1500 ------- 1 0.0 2.0 -1 29
+ 2.090554 0 1 sctp 1500 ------- 1 0.0 2.0 -1 30
- 2.091754 0 1 sctp 1500 ------- 1 0.0 2.0 -1 30
r 2.102714 2 1 sctp 48 ------- 0 2.0 0.0 -1 27
+ 2.102714 1 0 sctp 48 ------- 0 2.0 0.0 -1 27
- 2.102714 1 0 sctp 48 ------- 0 2.0 0.0 -1 27
r 2.111754 1 2 sctp 1500 ------- 1 0.0 2.0 -1 24
r 2.141754 1 2 sctp 1500 ------- 1 0.0 2.0 -1 25
+ 2.141754 2 1 sctp 48 ------- 0 2.0 0.0 -1 31
- 2.141754 2 1 sctp 48 ------- 0 2.0 0.0 -1 31
r 2.162714 2 1 sctp 48 ------- 0 2.0 0.0 -1 28
+ 2.162714 1 0 sctp 48 ------- 0 2.0 0.0 -1 28
- 2.162714 1 0 sctp 48 ------- 0 2.0 0.0 -1 28
r 2.171754 0 1 sctp 1500 ------- 1 0.0 2.0 -1 29
+ 2.171754 1 2 sctp 1500 ------- 1 0.0 2.0 -1 29
- 2.171754 1 2 sctp 1500 ------- 1 0.0 2.0 -1 29
r 2.172954 0 1 sctp 1500 ------- 1 0.0 2.0 -1 30
+ 2.172954 1 2 sctp 1500 ------- 1 0.0 2.0 -1 30
r 2.182752 1 0 sctp 48 ------- 0 2.0 0.0 -1 27
+ 2.182752 0 1 sctp 1500 ------- 1 0.0 2.0 -1 32
- 2.182752 0 1 sctp 1500 ------- 1 0.0 2.0 -1 32
+ 2.182752 0 1 sctp 1500 ------- 1 0.0 2.0 -1 33
+ 2.182752 0 1 sctp 1500 ------- 1 0.0 2.0 -1 34
- 2.183952 0 1 sctp 1500 ------- 1 0.0 2.0 -1 33
- 2.185152 0 1 sctp 1500 ------- 1 0.0 2.0 -1 34
- 2.201754 1 2 sctp 1500 ------- 1 0.0 2.0 -1 30
r 2.222714 2 1 sctp 48 ------- 0 2.0 0.0 -1 31
+ 2.222714 1 0 sctp 48 ------- 0 2.0 0.0 -1 31
- 2.222714 1 0 sctp 48 ------- 0 2.0 0.0 -1 31
r 2.242752 1 0 sctp 48 ------- 0 2.0 0.0 -1 28
+ 2.242752 0 1 sctp 1500 ------- 1 0.0 2.0 -1 35
- 2.242752 0 1 sctp 1500 ------- 1 0.0 2.0 -1 35
+ 2.242752 0 1 sctp 1500 ------- 1 0.0 2.0 -1 36
+ 2.242752 0 1 sctp 1500 ------- 1 0.0 2.0 -1 37
- 2.243952 0 1 sctp 1500 ------- 1 0.0 2.0 -1 36
- 2.245152 0 1 sctp 1500 ------- 1 0.0 2.0 -1 37
r 2.263952 0 1 sctp 1500 ------- 1 0.0 2.0 -1 32
+ 2.263952 1 2 sctp 1500 ------- 1 0.0 2.0 -1 32
- 2.263952 1 2 sctp 1500 ------- 1 0.0 2.0 -1 32
r 2.265152 0 1 sctp 1500 ------- 1 0.0 2.0 -1 33
+ 2.265152 1 2 sctp 1500 ------- 1 0.0 2.0 -1 33
r 2.266352 0 1 sctp 1500 ------- 1 0.0 2.0 -1 34
+ 2.266352 1 2 sctp 1500 ------- 1 0.0 2.0 -1 34
r 2.281754 1 2 sctp 1500 ------- 1 0.0 2.0 -1 29
- 2.293952 1 2 sctp 1500 ------- 1 0.0 2.0 -1 33
r 2.302752 1 0 sctp 48 ------- 0 2.0 0.0 -1 31
+ 2.302752 0 1 sctp 1500 ------- 1 0.0 2.0 -1 38
- 2.302752 0 1 sctp 1500 ------- 1 0.0 2.0 -1 38
+ 2.302752 0 1 sctp 1500 ------- 1 0.0 2.0 -1 39
+ 2.302752 0 1 sctp 1500 ------- 1 0.0 2.0 -1 40
- 2.303952 0 1 sctp 1500 ------- 1 0.0 2.0 -1 39
- 2.305152 0 1 sctp 1500 ------- 1 0.0 2.0 -1 40
r 2.311754 1 2 sctp 1500 ------- 1 0.0 2.0 -1 30
+ 2.311754 2 1 sctp 48 ------- 0 2.0 0.0 -1 41
- 2.311754 2 1 sctp 48 ------- 0 2.0 0.0 -1 41
- 2.323952 1 2 sctp 1500 ------- 1 0.0 2.0 -1 34
r 2.323952 0 1 sctp 1500 ------- 1 0.0 2.0 -1 35
+ 2.323952 1 2 sctp 1500 ------- 1 0.0 2.0 -1 35
r 2.325152 0 1 sctp 1500 ------- 1 0.0 2.0 -1 36
+ 2.325152 1 2 sctp 1500 ------- 1 0.0 2.0 -1 36
r 2.326352 0 1 sctp 1500 ------- 1 0.0 2.0 -1 37
+ 2.326352 1 2 sctp 1500 ------- 1 0.0 2.0 -1 37
- 2.353952 1 2 sctp 1500 ------- 1 0.0 2.0 -1 35
r 2.373952 1 2 sctp 1500 ------- 1 0.0 2.0 -1 32
- 2.383952 1 2 sctp 1500 ------- 1 0.0 2.0 -1 36
r 2.383952 0 1 sctp 1500 ------- 1 0.0 2.0 -1 38
+ 2.383952 1 2 sctp 1500 ------- 1 0.0 2.0 -1 38
r 2.385152 0 1 sctp 1500 ------- 1 0.0 2.0 -1 39
+ 2.385152 1 2 sctp 1500 ------- 1 0.0 2.0 -1 39
r 2.386352 0 1 sctp 1500 ------- 1 0.0 2.0 -1 40
+ 2.386352 1 2 sctp 1500 ------- 1 0.0 2.0 -1 40
r 2.392714 2 1 sctp 48 ------- 0 2.0 0.0 -1 41
+ 2.392714 1 0 sctp 48 ------- 0 2.0 0.0 -1 41
- 2.392714 1 0 sctp 48 ------- 0 2.0 0.0 -1 41
r 2.403952 1 2 sctp 1500 ------- 1 0.0 2.0 -1 33
+ 2.403952 2 1 sctp 48 ------- 0 2.0 0.0 -1 42
- 2.403952 2 1 sctp 48 ------- 0 2.0 0.0 -1 42
- 2.413952 1 2 sctp 1500 ------- 1 0.0 2.0 -1 37
r 2.433952 1 2 sctp 1500 ------- 1 0.0 2.0 -1 34
- 2.443952 1 2 sctp 1500 ------- 1 0.0 2.0 -1 38
r 2.463952 1 2 sctp 1500 ------- 1 0.0 2.0 -1 35
+ 2.463952 2 1 sctp 48 ------- 0 2.0 0.0 -1 43
- 2.463952 2 1 sctp 48 ------- 0 2.0 0.0 -1 43
r 2.472752 1 0 sctp 48 ------- 0 2.0 0.0 -1 41
+ 2.472752 0 1 sctp 1500 ------- 1 0.0 2.0 -1 44
- 2.472752 0 1 sctp 1500 ------- 1 0.0 2.0 -1 44
+ 2.472752 0 1 sctp 1500 ------- 1 0.0 2.0 -1 45
+ 2.472752 0 1 sctp 1500 ------- 1 0.0 2.0 -1 46
- 2.473952 1 2 sctp 1500 ------- 1 0.0 2.0 -1 39
- 2.473952 0 1 sctp 1500 ------- 1 0.0 2.0 -1 45
- 2.475152 0 1 sctp 1500 ------- 1 0.0 2.0 -1 46
r 2.484912 2 1 sctp 48 ------- 0 2.0 0.0 -1 42
+ 2.484912 1 0 sctp 48 ------- 0 2.0 0.0 -1 42
- 2.484912 1 0 sctp 48 ------- 0 2.0 0.0 -1 42
r 2.493952 1 2 sctp 1500 ------- 1 0.0 2.0 -1 36
- 2.503952 1 2 sctp 1500 ------- 1 0.0 2.0 -1 40
r 2.523952 1 2 sctp 1500 ------- 1 0.0 2.0 -1 37
+ 2.523952 2 1 sctp 48 ------- 0 2.0 0.0 -1 47
- 2.523952 2 1 sctp 48 ------- 0 2.0 0.0 -1 47
r 2.544912 2 1 sctp 48 ------- 0 2.0 0.0 -1 43
+ 2.544912 1 0 sctp 48 ------- 0 2.0 0.0 -1 43
- 2.544912 1 0 sctp 48 ------- 0 2.0 0.0 -1 43
r 2.553952 1 2 sctp 1500 ------- 1 0.0 2.0 -1 38
r 2.553952 0 1 sctp 1500 ------- 1 0.0 2.0 -1 44
+ 2.553952 1 2 sctp 1500 ------- 1 0.0 2.0 -1 44
- 2.553952 1 2 sctp 1500 ------- 1 0.0 2.0 -1 44
r 2.555152 0 1 sctp 1500 ------- 1 0.0 2.0 -1 45
+ 2.555152 1 2 sctp 1500 ------- 1 0.0 2.0 -1 45
r 2.556352 0 1 sctp 1500 ------- 1 0.0 2.0 -1 46
+ 2.556352 1 2 sctp 1500 ------- 1 0.0 2.0 -1 46
r 2.56495 1 0 sctp 48 ------- 0 2.0 0.0 -1 42
+ 2.56495 0 1 sctp 1500 ------- 1 0.0 2.0 -1 48
- 2.56495 0 1 sctp 1500 ------- 1 0.0 2.0 -1 48
+ 2.56495 0 1 sctp 1500 ------- 1 0.0 2.0 -1 49
+ 2.56495 0 1 sctp 1500 ------- 1 0.0 2.0 -1 50
- 2.56615 0 1 sctp 1500 ------- 1 0.0 2.0 -1 49
- 2.56735 0 1 sctp 1500 ------- 1 0.0 2.0 -1 50
r 2.583952 1 2 sctp 1500 ------- 1 0.0 2.0 -1 39
+ 2.583952 2 1 sctp 48 ------- 0 2.0 0.0 -1 51
- 2.583952 2 1 sctp 48 ------- 0 2.0 0.0 -1 51
- 2.583952 1 2 sctp 1500 ------- 1 0.0 2.0 -1 45
r 2.604912 2 1 sctp 48 ------- 0 2.0 0.0 -1 47
+ 2.604912 1 0 sctp 48 ------- 0 2.0 0.0 -1 47
- 2.604912 1 0 sctp 48 ------- 0 2.0 0.0 -1 47
r 2.613952 1 2 sctp 1500 ------- 1 0.0 2.0 -1 40
- 2.613952 1 2 sctp 1500 ------- 1 0.0 2.0 -1 46
r 2.62495 1 0 sctp 48 ------- 0 2.0 0.0 -1 43
+ 2.62495 0 1 sctp 1500 ------- 1 0.0 2.0 -1 52
- 2.62495 0 1 sctp 1500 ------- 1 0.0 2.0 -1 52
+ 2.62495 0 1 sctp 1500 ------- 1 0.0 2.0 -1 53
+ 2.62495 0 1 sctp 1500 ------- 1 0.0 2.0 -1 54
- 2.62615 0 1 sctp 1500 ------- 1 0.0 2.0 -1 53
- 2.62735 0 1 sctp 1500 ------- 1 0.0 2.0 -1 54
r 2.64615 0 1 sctp 1500 ------- 1 0.0 2.0 -1 48
+ 2.64615 1 2 sctp 1500 ------- 1 0.0 2.0 -1 48
- 2.64615 1 2 sctp 1500 ------- 1 0.0 2.0 -1 48
r 2.64735 0 1 sctp 1500 ------- 1 0.0 2.0 -1 49
+ 2.64735 1 2 sctp 1500 ------- 1 0.0 2.0 -1 49
r 2.64855 0 1 sctp 1500 ------- 1 0.0 2.0 -1 50
+ 2.64855 1 2 sctp 1500 ------- 1 0.0 2.0 -1 50
r 2.663952 1 2 sctp 1500 ------- 1 0.0 2.0 -1 44
+ 2.663952 2 1 sctp 48 ------- 0 2.0 0.0 -1 55
- 2.663952 2 1 sctp 48 ------- 0 2.0 0.0 -1 55
r 2.664912 2 1 sctp 48 ------- 0 2.0 0.0 -1 51
+ 2.664912 1 0 sctp 48 ------- 0 2.0 0.0 -1 51
- 2.664912 1 0 sctp 48 ------- 0 2.0 0.0 -1 51
- 2.67615 1 2 sctp 1500 ------- 1 0.0 2.0 -1 49
r 2.68495 1 0 sctp 48 ------- 0 2.0 0.0 -1 47
+ 2.68495 0 1 sctp 1500 ------- 1 0.0 2.0 -1 56
- 2.68495 0 1 sctp 1500 ------- 1 0.0 2.0 -1 56
+ 2.68495 0 1 sctp 1500 ------- 1 0.0 2.0 -1 57
+ 2.68495 0 1 sctp 1500 ------- 1 0.0 2.0 -1 58
- 2.68615 0 1 sctp 1500 ------- 1 0.0 2.0 -1 57
- 2.68735 0 1 sctp 1500 ------- 1 0.0 2.0 -1 58
r 2.693952 1 2 sctp 1500 ------- 1 0.0 2.0 -1 45
r 2.70615 0 1 sctp 1500 ------- 1 0.0 2.0 -1 52
+ 2.70615 1 2 sctp 1500 ------- 1 0.0 2.0 -1 52
- 2.70615 1 2 sctp 1500 ------- 1 0.0 2.0 -1 50
r 2.70735 0 1 sctp 1500 ------- 1 0.0 2.0 -1 53
+ 2.70735 1 2 sctp 1500 ------- 1 0.0 2.0 -1 53
r 2.70855 0 1 sctp 1500 ------- 1 0.0 2.0 -1 54
+ 2.70855 1 2 sctp 1500 ------- 1 0.0 2.0 -1 54
r 2.723952 1 2 sctp 1500 ------- 1 0.0 2.0 -1 46
+ 2.723952 2 1 sctp 48 ------- 0 2.0 0.0 -1 59
- 2.723952 2 1 sctp 48 ------- 0 2.0 0.0 -1 59
- 2.73615 1 2 sctp 1500 ------- 1 0.0 2.0 -1 52
r 2.744912 2 1 sctp 48 ------- 0 2.0 0.0 -1 55
+ 2.744912 1 0 sctp 48 ------- 0 2.0 0.0 -1 55
- 2.744912 1 0 sctp 48 ------- 0 2.0 0.0 -1 55
r 2.74495 1 0 sctp 48 ------- 0 2.0 0.0 -1 51
+ 2.74495 0 1 sctp 1500 ------- 1 0.0 2.0 -1 60
- 2.74495 0 1 sctp 1500 ------- 1 0.0 2.0 -1 60
+ 2.74495 0 1 sctp 1500 ------- 1 0.0 2.0 -1 61
+ 2.74495 0 1 sctp 1500 ------- 1 0.0 2.0 -1 62
- 2.74615 0 1 sctp 1500 ------- 1 0.0 2.0 -1 61
- 2.74735 0 1 sctp 1500 ------- 1 0.0 2.0 -1 62
r 2.75615 1 2 sctp 1500 ------- 1 0.0 2.0 -1 48
r 2.76615 0 1 sctp 1500 ------- 1 0.0 2.0 -1 56
+ 2.76615 1 2 sctp 1500 ------- 1 0.0 2.0 -1 56
- 2.76615 1 2 sctp 1500 ------- 1 0.0 2.0 -1 53
r 2.76735 0 1 sctp 1500 ------- 1 0.0 2.0 -1 57
+ 2.76735 1 2 sctp 1500 ------- 1 0.0 2.0 -1 57
r 2.76855 0 1 sctp 1500 ------- 1 0.0 2.0 -1 58
+ 2.76855 1 2 sctp 1500 ------- 1 0.0 2.0 -1 58
r 2.78615 1 2 sctp 1500 ------- 1 0.0 2.0 -1 49
+ 2.78615 2 1 sctp 48 ------- 0 2.0 0.0 -1 63
- 2.78615 2 1 sctp 48 ------- 0 2.0 0.0 -1 63
- 2.79615 1 2 sctp 1500 ------- 1 0.0 2.0 -1 54
r 2.804912 2 1 sctp 48 ------- 0 2.0 0.0 -1 59
+ 2.804912 1 0 sctp 48 ------- 0 2.0 0.0 -1 59
- 2.804912 1 0 sctp 48 ------- 0 2.0 0.0 -1 59
r 2.81615 1 2 sctp 1500 ------- 1 0.0 2.0 -1 50
r 2.82495 1 0 sctp 48 ------- 0 2.0 0.0 -1 55
+ 2.82495 0 1 sctp 1500 ------- 1 0.0 2.0 -1 64
- 2.82495 0 1 sctp 1500 ------- 1 0.0 2.0 -1 64
+ 2.82495 0 1 sctp 1500 ------- 1 0.0 2.0 -1 65
+ 2.82495 0 1 sctp 1500 ------- 1 0.0 2.0 -1 66
r 2.82615 0 1 sctp 1500 ------- 1 0.0 2.0 -1 60
+ 2.82615 1 2 sctp 1500 ------- 1 0.0 2.0 -1 60
- 2.82615 1 2 sctp 1500 ------- 1 0.0 2.0 -1 56
- 2.82615 0 1 sctp 1500 ------- 1 0.0 2.0 -1 65
r 2.82735 0 1 sctp 1500 ------- 1 0.0 2.0 -1 61
+ 2.82735 1 2 sctp 1500 ------- 1 0.0 2.0 -1 61
- 2.82735 0 1 sctp 1500 ------- 1 0.0 2.0 -1 66
r 2.82855 0 1 sctp 1500 ------- 1 0.0 2.0 -1 62
+ 2.82855 1 2 sctp 1500 ------- 1 0.0 2.0 -1 62
r 2.84615 1 2 sctp 1500 ------- 1 0.0 2.0 -1 52
+ 2.84615 2 1 sctp 48 ------- 0 2.0 0.0 -1 67
- 2.84615 2 1 sctp 48 ------- 0 2.0 0.0 -1 67
- 2.85615 1 2 sctp 1500 ------- 1 0.0 2.0 -1 57
r 2.86711 2 1 sctp 48 ------- 0 2.0 0.0 -1 63
+ 2.86711 1 0 sctp 48 ------- 0 2.0 0.0 -1 63
- 2.86711 1 0 sctp 48 ------- 0 2.0 0.0 -1 63
r 2.87615 1 2 sctp 1500 ------- 1 0.0 2.0 -1 53
r 2.88495 1 0 sctp 48 ------- 0 2.0 0.0 -1 59
+ 2.88495 0 1 sctp 1500 ------- 1 0.0 2.0 -1 68
- 2.88495 0 1 sctp 1500 ------- 1 0.0 2.0 -1 68
+ 2.88495 0 1 sctp 1500 ------- 1 0.0 2.0 -1 69
+ 2.88495 0 1 sctp 1500 ------- 1 0.0 2.0 -1 70
- 2.88615 1 2 sctp 1500 ------- 1 0.0 2.0 -1 58
- 2.88615 0 1 sctp 1500 ------- 1 0.0 2.0 -1 69
- 2.88735 0 1 sctp 1500 ------- 1 0.0 2.0 -1 70
r 2.90615 1 2 sctp 1500 ------- 1 0.0 2.0 -1 54
+ 2.90615 2 1 sctp 48 ------- 0 2.0 0.0 -1 71
- 2.90615 2 1 sctp 48 ------- 0 2.0 0.0 -1 71
r 2.90615 0 1 sctp 1500 ------- 1 0.0 2.0 -1 64
+ 2.90615 1 2 sctp 1500 ------- 1 0.0 2.0 -1 64
r 2.90735 0 1 sctp 1500 ------- 1 0.0 2.0 -1 65
+ 2.90735 1 2 sctp 1500 ------- 1 0.0 2.0 -1 65
r 2.90855 0 1 sctp 1500 ------- 1 0.0 2.0 -1 66
+ 2.90855 1 2 sctp 1500 ------- 1 0.0 2.0 -1 66
- 2.91615 1 2 sctp 1500 ------- 1 0.0 2.0 -1 60
r 2.92711 2 1 sctp 48 ------- 0 2.0 0.0 -1 67
+ 2.92711 1 0 sctp 48 ------- 0 2.0 0.0 -1 67
- 2.92711 1 0 sctp 48 ------- 0 2.0 0.0 -1 67
r 2.93615 1 2 sctp 1500 ------- 1 0.0 2.0 -1 56
- 2.94615 1 2 sctp 1500 ------- 1 0.0 2.0 -1 61
r 2.947149 1 0 sctp 48 ------- 0 2.0 0.0 -1 63
+ 2.947149 0 1 sctp 1500 ------- 1 0.0 2.0 -1 72
- 2.947149 0 1 sctp 1500 ------- 1 0.0 2.0 -1 72
+ 2.947149 0 1 sctp 1500 ------- 1 0.0 2.0 -1 73
+ 2.947149 0 1 sctp 1500 ------- 1 0.0 2.0 -1 74
- 2.948349 0 1 sctp 1500 ------- 1 0.0 2.0 -1 73
- 2.949549 0 1 sctp 1500 ------- 1 0.0 2.0 -1 74
r 2.96615 1 2 sctp 1500 ------- 1 0.0 2.0 -1 57
+ 2.96615 2 1 sctp 48 ------- 0 2.0 0.0 -1 75
- 2.96615 2 1 sctp 48 ------- 0 2.0 0.0 -1 75
r 2.96615 0 1 sctp 1500 ------- 1 0.0 2.0 -1 68
+ 2.96615 1 2 sctp 1500 ------- 1 0.0 2.0 -1 68
r 2.96735 0 1 sctp 1500 ------- 1 0.0 2.0 -1 69
+ 2.96735 1 2 sctp 1500 ------- 1 0.0 2.0 -1 69
r 2.96855 0 1 sctp 1500 ------- 1 0.0 2.0 -1 70
+ 2.96855 1 2 sctp 1500 ------- 1 0.0 2.0 -1 70
- 2.97615 1 2 sctp 1500 ------- 1 0.0 2.0 -1 62
r 2.98711 2 1 sctp 48 ------- 0 2.0 0.0 -1 71
+ 2.98711 1 0 sctp 48 ------- 0 2.0 0.0 -1 71
- 2.98711 1 0 sctp 48 ------- 0 2.0 0.0 -1 71
r 2.99615 1 2 sctp 1500 ------- 1 0.0 2.0 -1 58
- 3.00615 1 2 sctp 1500 ------- 1 0.0 2.0 -1 64
r 3.007149 1 0 sctp 48 ------- 0 2.0 0.0 -1 67
+ 3.007149 0 1 sctp 1500 ------- 1 0.0 2.0 -1 76
- 3.007149 0 1 sctp 1500 ------- 1 0.0 2.0 -1 76
+ 3.007149 0 1 sctp 1500 ------- 1 0.0 2.0 -1 77
+ 3.007149 0 1 sctp 1500 ------- 1 0.0 2.0 -1 78
- 3.008349 0 1 sctp 1500 ------- 1 0.0 2.0 -1 77
- 3.009549 0 1 sctp 1500 ------- 1 0.0 2.0 -1 78
r 3.02615 1 2 sctp 1500 ------- 1 0.0 2.0 -1 60
+ 3.02615 2 1 sctp 48 ------- 0 2.0 0.0 -1 79
- 3.02615 2 1 sctp 48 ------- 0 2.0 0.0 -1 79
r 3.028349 0 1 sctp 1500 ------- 1 0.0 2.0 -1 72
+ 3.028349 1 2 sctp 1500 ------- 1 0.0 2.0 -1 72
r 3.029549 0 1 sctp 1500 ------- 1 0.0 2.0 -1 73
+ 3.029549 1 2 sctp 1500 ------- 1 0.0 2.0 -1 73
r 3.030749 0 1 sctp 1500 ------- 1 0.0 2.0 -1 74
+ 3.030749 1 2 sctp 1500 ------- 1 0.0 2.0 -1 74
- 3.03615 1 2 sctp 1500 ------- 1 0.0 2.0 -1 65
r 3.04711 2 1 sctp 48 ------- 0 2.0 0.0 -1 75
+ 3.04711 1 0 sctp 48 ------- 0 2.0 0.0 -1 75
- 3.04711 1 0 sctp 48 ------- 0 2.0 0.0 -1 75
r 3.05615 1 2 sctp 1500 ------- 1 0.0 2.0 -1 61
- 3.06615 1 2 sctp 1500 ------- 1 0.0 2.0 -1 66
r 3.067149 1 0 sctp 48 ------- 0 2.0 0.0 -1 71
+ 3.067149 0 1 sctp 1500 ------- 1 0.0 2.0 -1 80
- 3.067149 0 1 sctp 1500 ------- 1 0.0 2.0 -1 80
+ 3.067149 0 1 sctp 1500 ------- 1 0.0 2.0 -1 81
+ 3.067149 0 1 sctp 1500 ------- 1 0.0 2.0 -1 82
- 3.068349 0 1 sctp 1500 ------- 1 0.0 2.0 -1 81
- 3.069549 0 1 sctp 1500 ------- 1 0.0 2.0 -1 82
r 3.08615 1 2 sctp 1500 ------- 1 0.0 2.0 -1 62
+ 3.08615 2 1 sctp 48 ------- 0 2.0 0.0 -1 83
- 3.08615 2 1 sctp 48 ------- 0 2.0 0.0 -1 83
r 3.088349 0 1 sctp 1500 ------- 1 0.0 2.0 -1 76
+ 3.088349 1 2 sctp 1500 ------- 1 0.0 2.0 -1 76
r 3.089549 0 1 sctp 1500 ------- 1 0.0 2.0 -1 77
+ 3.089549 1 2 sctp 1500 ------- 1 0.0 2.0 -1 77
r 3.090749 0 1 sctp 1500 ------- 1 0.0 2.0 -1 78
+ 3.090749 1 2 sctp 1500 ------- 1 0.0 2.0 -1 78
- 3.09615 1 2 sctp 1500 ------- 1 0.0 2.0 -1 68
r 3.10711 2 1 sctp 48 ------- 0 2.0 0.0 -1 79
+ 3.10711 1 0 sctp 48 ------- 0 2.0 0.0 -1 79
- 3.10711 1 0 sctp 48 ------- 0 2.0 0.0 -1 79
r 3.11615 1 2 sctp 1500 ------- 1 0.0 2.0 -1 64
- 3.12615 1 2 sctp 1500 ------- 1 0.0 2.0 -1 69
r 3.127149 1 0 sctp 48 ------- 0 2.0 0.0 -1 75
+ 3.127149 0 1 sctp 1500 ------- 1 0.0 2.0 -1 84
- 3.127149 0 1 sctp 1500 ------- 1 0.0 2.0 -1 84
+ 3.127149 0 1 sctp 1500 ------- 1 0.0 2.0 -1 85
+ 3.127149 0 1 sctp 1500 ------- 1 0.0 2.0 -1 86
- 3.128349 0 1 sctp 1500 ------- 1 0.0 2.0 -1 85
- 3.129549 0 1 sctp 1500 ------- 1 0.0 2.0 -1 86
r 3.14615 1 2 sctp 1500 ------- 1 0.0 2.0 -1 65
+ 3.14615 2 1 sctp 48 ------- 0 2.0 0.0 -1 87
- 3.14615 2 1 sctp 48 ------- 0 2.0 0.0 -1 87
r 3.148349 0 1 sctp 1500 ------- 1 0.0 2.0 -1 80
+ 3.148349 1 2 sctp 1500 ------- 1 0.0 2.0 -1 80
r 3.149549 0 1 sctp 1500 ------- 1 0.0 2.0 -1 81
+ 3.149549 1 2 sctp 1500 ------- 1 0.0 2.0 -1 81
r 3.150749 0 1 sctp 1500 ------- 1 0.0 2.0 -1 82
+ 3.150749 1 2 sctp 1500 ------- 1 0.0 2.0 -1 82
- 3.15615 1 2 sctp 1500 ------- 1 0.0 2.0 -1 70
r 3.16711 2 1 sctp 48 ------- 0 2.0 0.0 -1 83
+ 3.16711 1 0 sctp 48 ------- 0 2.0 0.0 -1 83
- 3.16711 1 0 sctp 48 ------- 0 2.0 0.0 -1 83
r 3.17615 1 2 sctp 1500 ------- 1 0.0 2.0 -1 66
- 3.18615 1 2 sctp 1500 ------- 1 0.0 2.0 -1 72
r 3.187149 1 0 sctp 48 ------- 0 2.0 0.0 -1 79
+ 3.187149 0 1 sctp 1500 ------- 1 0.0 2.0 -1 88
- 3.187149 0 1 sctp 1500 ------- 1 0.0 2.0 -1 88
+ 3.187149 0 1 sctp 1500 ------- 1 0.0 2.0 -1 89
+ 3.187149 0 1 sctp 1500 ------- 1 0.0 2.0 -1 90
- 3.188349 0 1 sctp 1500 ------- 1 0.0 2.0 -1 89
- 3.189549 0 1 sctp 1500 ------- 1 0.0 2.0 -1 90
r 3.20615 1 2 sctp 1500 ------- 1 0.0 2.0 -1 68
+ 3.20615 2 1 sctp 48 ------- 0 2.0 0.0 -1 91
- 3.20615 2 1 sctp 48 ------- 0 2.0 0.0 -1 91
r 3.208349 0 1 sctp 1500 ------- 1 0.0 2.0 -1 84
+ 3.208349 1 2 sctp 1500 ------- 1 0.0 2.0 -1 84
r 3.209549 0 1 sctp 1500 ------- 1 0.0 2.0 -1 85
+ 3.209549 1 2 sctp 1500 ------- 1 0.0 2.0 -1 85
r 3.210749 0 1 sctp 1500 ------- 1 0.0 2.0 -1 86
+ 3.210749 1 2 sctp 1500 ------- 1 0.0 2.0 -1 86
- 3.21615 1 2 sctp 1500 ------- 1 0.0 2.0 -1 73
r 3.22711 2 1 sctp 48 ------- 0 2.0 0.0 -1 87
+ 3.22711 1 0 sctp 48 ------- 0 2.0 0.0 -1 87
- 3.22711 1 0 sctp 48 ------- 0 2.0 0.0 -1 87
r 3.23615 1 2 sctp 1500 ------- 1 0.0 2.0 -1 69
- 3.24615 1 2 sctp 1500 ------- 1 0.0 2.0 -1 74
r 3.247149 1 0 sctp 48 ------- 0 2.0 0.0 -1 83
+ 3.247149 0 1 sctp 1500 ------- 1 0.0 2.0 -1 92
- 3.247149 0 1 sctp 1500 ------- 1 0.0 2.0 -1 92
+ 3.247149 0 1 sctp 1500 ------- 1 0.0 2.0 -1 93
+ 3.247149 0 1 sctp 1500 ------- 1 0.0 2.0 -1 94
- 3.248349 0 1 sctp 1500 ------- 1 0.0 2.0 -1 93
- 3.249549 0 1 sctp 1500 ------- 1 0.0 2.0 -1 94
r 3.26615 1 2 sctp 1500 ------- 1 0.0 2.0 -1 70
+ 3.26615 2 1 sctp 48 ------- 0 2.0 0.0 -1 95
- 3.26615 2 1 sctp 48 ------- 0 2.0 0.0 -1 95
r 3.268349 0 1 sctp 1500 ------- 1 0.0 2.0 -1 88
+ 3.268349 1 2 sctp 1500 ------- 1 0.0 2.0 -1 88
r 3.269549 0 1 sctp 1500 ------- 1 0.0 2.0 -1 89
+ 3.269549 1 2 sctp 1500 ------- 1 0.0 2.0 -1 89
r 3.270749 0 1 sctp 1500 ------- 1 0.0 2.0 -1 90
+ 3.270749 1 2 sctp 1500 ------- 1 0.0 2.0 -1 90
- 3.27615 1 2 sctp 1500 ------- 1 0.0 2.0 -1 76
r 3.28711 2 1 sctp 48 ------- 0 2.0 0.0 -1 91
+ 3.28711 1 0 sctp 48 ------- 0 2.0 0.0 -1 91
- 3.28711 1 0 sctp 48 ------- 0 2.0 0.0 -1 91
r 3.29615 1 2 sctp 1500 ------- 1 0.0 2.0 -1 72
- 3.30615 1 2 sctp 1500 ------- 1 0.0 2.0 -1 77
r 3.307149 1 0 sctp 48 ------- 0 2.0 0.0 -1 87
+ 3.307149 0 1 sctp 1500 ------- 1 0.0 2.0 -1 96
- 3.307149 0 1 sctp 1500 ------- 1 0.0 2.0 -1 96
+ 3.307149 0 1 sctp 1500 ------- 1 0.0 2.0 -1 97
+ 3.307149 0 1 sctp 1500 ------- 1 0.0 2.0 -1 98
- 3.308349 0 1 sctp 1500 ------- 1 0.0 2.0 -1 97
- 3.309549 0 1 sctp 1500 ------- 1 0.0 2.0 -1 98
r 3.32615 1 2 sctp 1500 ------- 1 0.0 2.0 -1 73
+ 3.32615 2 1 sctp 48 ------- 0 2.0 0.0 -1 99
- 3.32615 2 1 sctp 48 ------- 0 2.0 0.0 -1 99
r 3.328349 0 1 sctp 1500 ------- 1 0.0 2.0 -1 92
+ 3.328349 1 2 sctp 1500 ------- 1 0.0 2.0 -1 92
r 3.329549 0 1 sctp 1500 ------- 1 0.0 2.0 -1 93
+ 3.329549 1 2 sctp 1500 ------- 1 0.0 2.0 -1 93
r 3.330749 0 1 sctp 1500 ------- 1 0.0 2.0 -1 94
+ 3.330749 1 2 sctp 1500 ------- 1 0.0 2.0 -1 94
- 3.33615 1 2 sctp 1500 ------- 1 0.0 2.0 -1 78
r 3.34711 2 1 sctp 48 ------- 0 2.0 0.0 -1 95
+ 3.34711 1 0 sctp 48 ------- 0 2.0 0.0 -1 95
- 3.34711 1 0 sctp 48 ------- 0 2.0 0.0 -1 95
r 3.35615 1 2 sctp 1500 ------- 1 0.0 2.0 -1 74
- 3.36615 1 2 sctp 1500 ------- 1 0.0 2.0 -1 80
r 3.367149 1 0 sctp 48 ------- 0 2.0 0.0 -1 91
+ 3.367149 0 1 sctp 1500 ------- 1 0.0 2.0 -1 100
- 3.367149 0 1 sctp 1500 ------- 1 0.0 2.0 -1 100
+ 3.367149 0 1 sctp 1500 ------- 1 0.0 2.0 -1 101
+ 3.367149 0 1 sctp 1500 ------- 1 0.0 2.0 -1 102
- 3.368349 0 1 sctp 1500 ------- 1 0.0 2.0 -1 101
- 3.369549 0 1 sctp 1500 ------- 1 0.0 2.0 -1 102
r 3.38615 1 2 sctp 1500 ------- 1 0.0 2.0 -1 76
+ 3.38615 2 1 sctp 48 ------- 0 2.0 0.0 -1 103
- 3.38615 2 1 sctp 48 ------- 0 2.0 0.0 -1 103
r 3.388349 0 1 sctp 1500 ------- 1 0.0 2.0 -1 96
+ 3.388349 1 2 sctp 1500 ------- 1 0.0 2.0 -1 96
r 3.389549 0 1 sctp 1500 ------- 1 0.0 2.0 -1 97
+ 3.389549 1 2 sctp 1500 ------- 1 0.0 2.0 -1 97
r 3.390749 0 1 sctp 1500 ------- 1 0.0 2.0 -1 98
+ 3.390749 1 2 sctp 1500 ------- 1 0.0 2.0 -1 98
- 3.39615 1 2 sctp 1500 ------- 1 0.0 2.0 -1 81
r 3.40711 2 1 sctp 48 ------- 0 2.0 0.0 -1 99
+ 3.40711 1 0 sctp 48 ------- 0 2.0 0.0 -1 99
- 3.40711 1 0 sctp 48 ------- 0 2.0 0.0 -1 99
r 3.41615 1 2 sctp 1500 ------- 1 0.0 2.0 -1 77
- 3.42615 1 2 sctp 1500 ------- 1 0.0 2.0 -1 82
r 3.427149 1 0 sctp 48 ------- 0 2.0 0.0 -1 95
+ 3.427149 0 1 sctp 808 ------- 1 0.0 2.0 -1 104
- 3.427149 0 1 sctp 808 ------- 1 0.0 2.0 -1 104
+ 3.427149 0 1 sctp 1500 ------- 1 0.0 2.0 -1 105
+ 3.427149 0 1 sctp 1500 ------- 1 0.0 2.0 -1 106
+ 3.427149 0 1 sctp 1500 ------- 1 0.0 2.0 -1 107
- 3.427795 0 1 sctp 1500 ------- 1 0.0 2.0 -1 105
- 3.428995 0 1 sctp 1500 ------- 1 0.0 2.0 -1 106
- 3.430195 0 1 sctp 1500 ------- 1 0.0 2.0 -1 107
r 3.44615 1 2 sctp 1500 ------- 1 0.0 2.0 -1 78
+ 3.44615 2 1 sctp 48 ------- 0 2.0 0.0 -1 108
- 3.44615 2 1 sctp 48 ------- 0 2.0 0.0 -1 108
r 3.448349 0 1 sctp 1500 ------- 1 0.0 2.0 -1 100
+ 3.448349 1 2 sctp 1500 ------- 1 0.0 2.0 -1 100
r 3.449549 0 1 sctp 1500 ------- 1 0.0 2.0 -1 101
+ 3.449549 1 2 sctp 1500 ------- 1 0.0 2.0 -1 101
r 3.450749 0 1 sctp 1500 ------- 1 0.0 2.0 -1 102
+ 3.450749 1 2 sctp 1500 ------- 1 0.0 2.0 -1 102
- 3.45615 1 2 sctp 1500 ------- 1 0.0 2.0 -1 84
r 3.46711 2 1 sctp 48 ------- 0 2.0 0.0 -1 103
+ 3.46711 1 0 sctp 48 ------- 0 2.0 0.0 -1 103
- 3.46711 1 0 sctp 48 ------- 0 2.0 0.0 -1 103
r 3.47615 1 2 sctp 1500 ------- 1 0.0 2.0 -1 80
- 3.48615 1 2 sctp 1500 ------- 1 0.0 2.0 -1 85
r 3.487149 1 0 sctp 48 ------- 0 2.0 0.0 -1 99
+ 3.487149 0 1 sctp 1500 ------- 1 0.0 2.0 -1 109
- 3.487149 0 1 sctp 1500 ------- 1 0.0 2.0 -1 109
+ 3.487149 0 1 sctp 1500 ------- 1 0.0 2.0 -1 110
+ 3.487149 0 1 sctp 1500 ------- 1 0.0 2.0 -1 111
- 3.488349 0 1 sctp 1500 ------- 1 0.0 2.0 -1 110
- 3.489549 0 1 sctp 1500 ------- 1 0.0 2.0 -1 111
r 3.50615 1 2 sctp 1500 ------- 1 0.0 2.0 -1 81
+ 3.50615 2 1 sctp 48 ------- 0 2.0 0.0 -1 112
- 3.50615 2 1 sctp 48 ------- 0 2.0 0.0 -1 112
r 3.507795 0 1 sctp 808 ------- 1 0.0 2.0 -1 104
+ 3.507795 1 2 sctp 808 ------- 1 0.0 2.0 -1 104
r 3.508995 0 1 sctp 1500 ------- 1 0.0 2.0 -1 105
+ 3.508995 1 2 sctp 1500 ------- 1 0.0 2.0 -1 105
r 3.510195 0 1 sctp 1500 ------- 1 0.0 2.0 -1 106
+ 3.510195 1 2 sctp 1500 ------- 1 0.0 2.0 -1 106
r 3.511395 0 1 sctp 1500 ------- 1 0.0 2.0 -1 107
+ 3.511395 1 2 sctp 1500 ------- 1 0.0 2.0 -1 107
- 3.51615 1 2 sctp 1500 ------- 1 0.0 2.0 -1 86
r 3.52711 2 1 sctp 48 ------- 0 2.0 0.0 -1 108
+ 3.52711 1 0 sctp 48 ------- 0 2.0 0.0 -1 108
- 3.52711 1 0 sctp 48 ------- 0 2.0 0.0 -1 108
r 3.53615 1 2 sctp 1500 ------- 1 0.0 2.0 -1 82
- 3.54615 1 2 sctp 1500 ------- 1 0.0 2.0 -1 88
r 3.547149 1 0 sctp 48 ------- 0 2.0 0.0 -1 103
+ 3.547149 0 1 sctp 1500 ------- 1 0.0 2.0 -1 113
- 3.547149 0 1 sctp 1500 ------- 1 0.0 2.0 -1 113
+ 3.547149 0 1 sctp 1500 ------- 1 0.0 2.0 -1 114
+ 3.547149 0 1 sctp 1500 ------- 1 0.0 2.0 -1 115
- 3.548349 0 1 sctp 1500 ------- 1 0.0 2.0 -1 114
- 3.549549 0 1 sctp 1500 ------- 1 0.0 2.0 -1 115
r 3.56615 1 2 sctp 1500 ------- 1 0.0 2.0 -1 84
+ 3.56615 2 1 sctp 48 ------- 0 2.0 0.0 -1 116
- 3.56615 2 1 sctp 48 ------- 0 2.0 0.0 -1 116