V -t * -v 1.0a5 -a 0
A -t * -n 1 -p 0 -o 0x7fffffff -c 30 -a 1
A -t * -h 1 -m 1073741823 -s 0
c -t * -i 1 -n Blue
c -t * -i 2 -n Red
n -t * -a 0 -s 0 -S UP -v circle -c black -i black
n -t * -a 1 -s 1 -S UP -v circle -c black -i black
n -t * -a 2 -s 2 -S UP -v circle -c black -i black
l -t * -s 0 -d 1 -S UP -r 10000000 -D 0.080000000000000002 -c black
l -t * -s 1 -d 2 -S UP -r 3000000 -D 0.080000000000000002 -c black
+ -t 0.1 -s 0 -d 1 -p sctp -e 56 -c 1 -i 2 -a 1 -x {0.0 2.0 -1 ------- null}
- -t 0.1 -s 0 -d 1 -p sctp -e 56 -c 1 -i 2 -a 1 -x {0.0 2.0 -1 ------- null}
h -t 0.1 -s 0 -d 1 -p sctp -e 56 -c 1 -i 2 -a 1 -x {0.0 2.0 -1 ------- null}
r -t 0.1800448 -s 0 -d 1 -p sctp -e 56 -c 1 -i 2 -a 1 -x {0.0 2.0 -1 ------- null}
+ -t 0.1800448 -s 1 -d 2 -p sctp -e 56 -c 1 -i 2 -a 1 -x {0.0 2.0 -1 ------- null}
- -t 0.1800448 -s 1 -d 2 -p sctp -e 56 -c 1 -i 2 -a 1 -x {0.0 2.0 -1 ------- null}
h -t 0.1800448 -s 1 -d 2 -p sctp -e 56 -c 1 -i 2 -a 1 -x {0.0 2.0 -1 ------- null}
r -t 0.260194133333333 -s 1 -d 2 -p sctp -e 56 -c 1 -i 2 -a 1 -x {0.0 2.0 -1 ------- null}
+ -t 0.260194133333333 -s 2 -d 1 -p sctp -e 56 -c 0 -i 3 -a 0 -x {2.0 0.0 -1 ------- null}
- -t 0.260194133333333 -s 2 -d 1 -p sctp -e 56 -c 0 -i 3 -a 0 -x {2.0 0.0 -1 ------- null}
h -t 0.260194133333333 -s 2 -d 1 -p sctp -e 56 -c 0 -i 3 -a 0 -x {2.0 0.0 -1 ------- null}
r -t 0.340343466666667 -s 2 -d 1 -p sctp -e 56 -c 0 -i 3 -a 0 -x {2.0 0.0 -1 ------- null}
+ -t 0.340343466666667 -s 1 -d 0 -p sctp -e 56 -c 0 -i 3 -a 0 -x {2.0 0.0 -1 ------- null}
- -t 0.340343466666667 -s 1 -d 0 -p sctp -e 56 -c 0 -i 3 -a 0 -x {2.0 0.0 -1 ------- null}
h -t 0.340343466666667 -s 1 -d 0 -p sctp -e 56 -c 0 -i 3 -a 0 -x {2.0 0.0 -1 ------- null}
r -t 0.420388266666667 -s 1 -d 0 -p sctp -e 56 -c 0 -i 3 -a 0 -x {2.0 0.0 -1 ------- null}
+ -t 0.420388266666667 -s 0 -d 1 -p sctp -e 36 -c 1 -i 4 -a 1 -x {0.0 2.0 -1 ------- null}
- -t 0.420388266666667 -s 0 -d 1 -p sctp -e 36 -c 1 -i 4 -a 1 -x {0.0 2.0 -1 ------- null}
h -t 0.420388266666667 -s 0 -d 1 -p sctp -e 36 -c 1 -i 4 -a 1 -x {0.0 2.0 -1 ------- null}
r -t 0.500417066666667 -s 0 -d 1 -p sctp -e 36 -c 1 -i 4 -a 1 -x {0.0 2.0 -1 ------- null}
+ -t 0.500417066666667 -s 1 -d 2 -p sctp -e 36 -c 1 -i 4 -a 1 -x {0.0 2.0 -1 ------- null}
- -t 0.500417066666667 -s 1 -d 2 -p sctp -e 36 -c 1 -i 4 -a 1 -x {0.0 2.0 -1 ------- null}
h -t 0.500417066666667 -s 1 -d 2 -p sctp -e 36 -c 1 -i 4 -a 1 -x {0.0 2.0 -1 ------- null}
r -t 0.580513066666667 -s 1 -d 2 -p sctp -e 36 -c 1 -i 4 -a 1 -x {0.0 2.0 -1 ------- null}
+ -t 0.580513066666667 -s 2 -d 1 -p sctp -e 36 -c 0 -i 5 -a 0 -x {2.0 0.0 -1 ------- null}
- -t 0.580513066666667 -s 2 -d 1 -p sctp -e 36 -c 0 -i 5 -a 0 -x {2.0 0.0 -1 ------- null}
h -t 0.580513066666667 -s 2 -d 1 -p sctp -e 36 -c 0 -i 5 -a 0 -x {2.0 0.0 -1 ------- null}
r -t 0.660609066666667 -s 2 -d 1 -p sctp -e 36 -c 0 -i 5 -a 0 -x {2.0 0.0 -1 ------- null}
+ -t 0.660609066666667 -s 1 -d 0 -p sctp -e 36 -c 0 -i 5 -a 0 -x {2.0 0.0 -1 ------- null}
- -t 0.660609066666667 -s 1 -d 0 -p sctp -e 36 -c 0 -i 5 -a 0 -x {2.0 0.0 -1 ------- null}
h -t 0.660609066666667 -s 1 -d 0 -p sctp -e 36 -c 0 -i 5 -a 0 -x {2.0 0.0 -1 ------- null}
r -t 0.740637866666667 -s 1 -d 0 -p sctp -e 36 -c 0 -i 5 -a 0 -x {2.0 0.0 -1 ------- null}
+ -t 0.740637866666667 -s 0 -d 1 -p sctp -e 56 -c 1 -i 6 -a 1 -x {0.0 2.0 -1 ------- null}
- -t 0.740637866666667 -s 0 -d 1 -p sctp -e 56 -c 1 -i 6 -a 1 -x {0.0 2.0 -1 ------- null}
h -t 0.740637866666667 -s 0 -d 1 -p sctp -e 56 -c 1 -i 6 -a 1 -x {0.0 2.0 -1 ------- null}
r -t 0.820682666666667 -s 0 -d 1 -p sctp -e 56 -c 1 -i 6 -a 1 -x {0.0 2.0 -1 ------- null}
+ -t 0.820682666666667 -s 1 -d 2 -p sctp -e 56 -c 1 -i 6 -a 1 -x {0.0 2.0 -1 ------- null}
- -t 0.820682666666667 -s 1 -d 2 -p sctp -e 56 -c 1 -i 6 -a 1 -x {0.0 2.0 -1 ------- null}
h -t 0.820682666666667 -s 1 -d 2 -p sctp -e 56 -c 1 -i 6 -a 1 -x {0.0 2.0 -1 ------- null}
r -t 0.900832 -s 1 -d 2 -p sctp -e 56 -c 1 -i 6 -a 1 -x {0.0 2.0 -1 ------- null}
+ -t 0.900832 -s 2 -d 1 -p sctp -e 56 -c 0 -i 7 -a 0 -x {2.0 0.0 -1 ------- null}
- -t 0.900832 -s 2 -d 1 -p sctp -e 56 -c 0 -i 7 -a 0 -x {2.0 0.0 -1 ------- null}
h -t 0.900832 -s 2 -d 1 -p sctp -e 56 -c 0 -i 7 -a 0 -x {2.0 0.0 -1 ------- null}
r -t 0.980981333333333 -s 2 -d 1 -p sctp -e 56 -c 0 -i 7 -a 0 -x {2.0 0.0 -1 ------- null}
+ -t 0.980981333333333 -s 1 -d 0 -p sctp -e 56 -c 0 -i 7 -a 0 -x {2.0 0.0 -1 ------- null}
- -t 0.980981333333333 -s 1 -d 0 -p sctp -e 56 -c 0 -i 7 -a 0 -x {2.0 0.0 -1 ------- null}
h -t 0.980981333333333 -s 1 -d 0 -p sctp -e 56 -c 0 -i 7 -a 0 -x {2.0 0.0 -1 ------- null}
r -t 1.06102613333333 -s 1 -d 0 -p sctp -e 56 -c 0 -i 7 -a 0 -x {2.0 0.0 -1 ------- null}
+ -t 1.06102613333333 -s 0 -d 1 -p sctp -e 1500 -c 1 -i 8 -a 1 -x {0.0 2.0 -1 ------- null}
- -t 1.06102613333333 -s 0 -d 1 -p sctp -e 1500 -c 1 -i 8 -a 1 -x {0.0 2.0 -1 ------- null}
h -t 1.06102613333333 -s 0 -d 1 -p sctp -e 1500 -c 1 -i 8 -a 1 -x {0.0 2.0 -1 ------- null}
+ -t 1.06102613333333 -s 0 -d 1 -p sctp -e 1500 -c 1 -i 9 -a 1 -x {0.0 2.0 -1 ------- null}
+ -t 1.06102613333333 -s 0 -d 1 -p sctp -e 1500 -c 1 -i 10 -a 1 -x {0.0 2.0 -1 ------- null}
- -t 1.06222613333333 -s 0 -d 1 -p sctp -e 1500 -c 1 -i 9 -a 1 -x {0.0 2.0 -1 ------- null}
h -t 1.06222613333333 -s 0 -d 1 -p sctp -e 1500 -c 1 -i 9 -a 1 -x {0.0 2.0 -1 ------- null}
- -t 1.06342613333333 -s 0 -d 1 -p sctp -e 1500 -c 1 -i 10 -a 1 -x {0.0 2.0 -1 ------- null}
h -t 1.06342613333333 -s 0 -d 1 -p sctp -e 1500 -c 1 -i 10 -a 1 -x {0.0 2.0 -1 ------- null}
r -t 1.14222613333333 -s 0 -d 1 -p sctp -e 1500 -c 1 -i 8 -a 1 -x {0.0 2.0 -1 ------- null}
+ -t 1.14222613333333 -s 1 -d 2 -p sctp -e 1500 -c 1 -i 8 -a 1 -x {0.0 2.0 -1 ------- null}
- -t 1.14222613333333 -s 1 -d 2 -p sctp -e 1500 -c 1 -i 8 -a 1 -x {0.0 2.0 -1 ------- null}
h -t 1.14222613333333 -s 1 -d 2 -p sctp -e 1500 -c 1 -i 8 -a 1 -x {0.0 2.0 -1 ------- null}
r -t 1.14342613333333 -s 0 -d 1 -p sctp -e 1500 -c 1 -i 9 -a 1 -x {0.0 2.0 -1 ------- null}
+ -t 1.14342613333333 -s 1 -d 2 -p sctp -e 1500 -c 1 -i 9 -a 1 -x {0.0 2.0 -1 ------- null}
r -t 1.14462613333333 -s 0 -d 1 -p sctp -e 1500 -c 1 -i 10 -a 1 -x {0.0 2.0 -1 ------- null}
+ -t 1.14462613333333 -s 1 -d 2 -p sctp -e 1500 -c 1 -i 10 -a 1 -x {0.0 2.0 -1 ------- null}
- -t 1.14622613333333 -s 1 -d 2 -p sctp -e 1500 -c 1 -i 9 -a 1 -x {0.0 2.0 -1 ------- null}
h -t 1.14622613333333 -s 1 -d 2 -p sctp -e 1500 -c 1 -i 9 -a 1 -x {0.0 2.0 -1 ------- null}
- -t 1.15022613333333 -s 1 -d 2 -p sctp -e 1500 -c 1 -i 10 -a 1 -x {0.0 2.0 -1 ------- null}
h -t 1.15022613333333 -s 1 -d 2 -p sctp -e 1500 -c 1 -i 10 -a 1 -x {0.0 2.0 -1 ------- null}
r -t 1.22622613333333 -s 1 -d 2 -p sctp -e 1500 -c 1 -i 8 -a 1 -x {0.0 2.0 -1 ------- null}
+ -t 1.22622613333333 -s 2 -d 1 -p sctp -e 48 -c 0 -i 11 -a 0 -x {2.0 0.0 -1 ------- null}
- -t 1.22622613333333 -s 2 -d 1 -p sctp -e 48 -c 0 -i 11 -a 0 -x {2.0 0.0 -1 ------- null}
h -t 1.22622613333333 -s 2 -d 1 -p sctp -e 48 -c 0 -i 11 -a 0 -x {2.0 0.0 -1 ------- null}
r -t 1.23022613333333 -s 1 -d 2 -p sctp -e 1500 -c 1 -i 9 -a 1 -x {0.0 2.0 -1 ------- null}
r -t 1.23422613333333 -s 1 -d 2 -p sctp -e 1500 -c 1 -i 10 -a 1 -x {0.0 2.0 -1 ------- null}
+ -t 1.23422613333333 -s 2 -d 1 -p sctp -e 48 -c 0 -i 12 -a 0 -x {2.0 0.0 -1 ------- null}
- -t 1.23422613333333 -s 2 -d 1 -p sctp -e 48 -c 0 -i 12 -a 0 -x {2.0 0.0 -1 ------- null}
h -t 1.23422613333333 -s 2 -d 1 -p sctp -e 48 -c 0 -i 12 -a 0 -x {2.0 0.0 -1 ------- null}
r -t 1.30635413333333 -s 2 -d 1 -p sctp -e 48 -c 0 -i 11 -a 0 -x {2.0 0.0 -1 ------- null}
+ -t 1.30635413333333 -s 1 -d 0 -p sctp -e 48 -c 0 -i 11 -a 0 -x {2.0 0.0 -1 ------- null}
- -t 1.30635413333333 -s 1 -d 0 -p sctp -e 48 -c 0 -i 11 -a 0 -x {2.0 0.0 -1 ------- null}
h -t 1.30635413333333 -s 1 -d 0 -p sctp -e 48 -c 0 -i 11 -a 0 -x {2.0 0.0 -1 ------- null}
r -t 1.31435413333333 -s 2 -d 1 -p sctp -e 48 -c 0 -i 12 -a 0 -x {2.0 0.0 -1 ------- null}
+ -t 1.31435413333333 -s 1 -d 0 -p sctp -e 48 -c 0 -i 12 -a 0 -x {2.0 0.0 -1 ------- null}
- -t 1.31435413333333 -s 1 -d 0 -p sctp -e 48 -c 0 -i 12 -a 0 -x {2.0 0.0 -1 ------- null}
h -t 1.31435413333333 -s 1 -d 0 -p sctp -e 48 -c 0 -i 12 -a 0 -x {2.0 0.0 -1 ------- null}
r -t 1.38639253333333 -s 1 -d 0 -p sctp -e 48 -c 0 -i 11 -a 0 -x {2.0 0.0 -1 ------- null}
+ -t 1.38639253333333 -s 0 -d 1 -p sctp -e 1500 -c 1 -i 13 -a 1 -x {0.0 2.0 -1 ------- null}
- -t 1.38639253333333 -s 0 -d 1 -p sctp -e 1500 -c 1 -i 13 -a 1 -x {0.0 2.0 -1 ------- null}
h -t 1.38639253333333 -s 0 -d 1 -p sctp -e 1500 -c 1 -i 13 -a 1 -x {0.0 2.0 -1 ------- null}
+ -t 1.38639253333333 -s 0 -d 1 -p sctp -e 1500 -c 1 -i 14 -a 1 -x {0.0 2.0 -1 ------- null}
- -t 1.38759253333333 -s 0 -d 1 -p sctp -e 1500 -c 1 -i 14 -a 1 -x {0.0 2.0 -1 ------- null}
h -t 1.38759253333333 -s 0 -d 1 -p sctp -e 1500 -c 1 -i 14 -a 1 -x {0.0 2.0 -1 ------- null}
r -t 1.39439253333333 -s 1 -d 0 -p sctp -e 48 -c 0 -i 12 -a 0 -x {2.0 0.0 -1 ------- null}
+ -t 1.39439253333333 -s 0 -d 1 -p sctp -e 1500 -c 1 -i 15 -a 1 -x {0.0 2.0 -1 ------- null}
- -t 1.39439253333333 -s 0 -d 1 -p sctp -e 1500 -c 1 -i 15 -a 1 -x {0.0 2.0 -1 ------- null}
h -t 1.39439253333333 -s 0 -d 1 -p sctp -e 1500 -c 1 -i 15 -a 1 -x {0.0 2.0 -1 ------- null}
+ -t 1.39439253333333 -s 0 -d 1 -p sctp -e 1500 -c 1 -i 16 -a 1 -x {0.0 2.0 -1 ------- null}
+ -t 1.39439253333333 -s 0 -d 1 -p sctp -e 1500 -c 1 -i 17 -a 1 -x {0.0 2.0 -1 ------- null}
- -t 1.39559253333333 -s 0 -d 1 -p sctp -e 1500 -c 1 -i 16 -a 1 -x {0.0 2.0 -1 ------- null}
h -t 1.39559253333333 -s 0 -d 1 -p sctp -e 1500 -c 1 -i 16 -a 1 -x {0.0 2.0 -1 ------- null}
- -t 1.39679253333333 -s 0 -d 1 -p sctp -e 1500 -c 1 -i 17 -a 1 -x {0.0 2.0 -1 ------- null}
h -t 1.39679253333333 -s 0 -d 1 -p sctp -e 1500 -c 1 -i 17 -a 1 -x {0.0 2.0 -1 ------- null}
r -t 1.46759253333333 -s 0 -d 1 -p sctp -e 1500 -c 1 -i 13 -a 1 -x {0.0 2.0 -1 ------- null}
+ -t 1.46759253333333 -s 1 -d 2 -p sctp -e 1500 -c 1 -i 13 -a 1 -x {0.0 2.0 -1 ------- null}
- -t 1.46759253333333 -s 1 -d 2 -p sctp -e 1500 -c 1 -i 13 -a 1 -x {0.0 2.0 -1 ------- null}
h -t 1.46759253333333 -s 1 -d 2 -p sctp -e 1500 -c 1 -i 13 -a 1 -x {0.0 2.0 -1 ------- null}
r -t 1.46879253333333 -s 0 -d 1 -p sctp -e 1500 -c 1 -i 14 -a 1 -x {0.0 2.0 -1 ------- null}
+ -t 1.46879253333333 -s 1 -d 2 -p sctp -e 1500 -c 1 -i 14 -a 1 -x {0.0 2.0 -1 ------- null}
- -t 1.47159253333333 -s 1 -d 2 -p sctp -e 1500 -c 1 -i 14 -a 1 -x {0.0 2.0 -1 ------- null}
h -t 1.47159253333333 -s 1 -d 2 -p sctp -e 1500 -c 1 -i 14 -a 1 -x {0.0 2.0 -1 ------- null}
r -t 1.47559253333333 -s 0 -d 1 -p sctp -e 1500 -c 1 -i 15 -a 1 -x {0.0 2.0 -1 ------- null}
+ -t 1.47559253333333 -s 1 -d 2 -p sctp -e 1500 -c 1 -i 15 -a 1 -x {0.0 2.0 -1 ------- null}
- -t 1.47559253333333 -s 1 -d 2 -p sctp -e 1500 -c 1 -i 15 -a 1 -x {0.0 2.0 -1 ------- null}
h -t 1.47559253333333 -s 1 -d 2 -p sctp -e 1500 -c 1 -i 15 -a 1 -x {0.0 2.0 -1 ------- null}
r -t 1.47679253333333 -s 0 -d 1 -p sctp -e 1500 -c 1 -i 16 -a 1 -x {0.0 2.0 -1 ------- null}
+ -t 1.47679253333333 -s 1 -d 2 -p sctp -e 1500 -c 1 -i 16 -a 1 -x {0.0 2.0 -1 ------- null}
r -t 1.47799253333333 -s 0 -d 1 -p sctp -e 1500 -c 1 -i 17 -a 1 -x {0.0 2.0 -1 ------- null}
+ -t 1.47799253333333 -s 1 -d 2 -p sctp -e 1500 -c 1 -i 17 -a 1 -x {0.0 2.0 -1 ------- null}
- -t 1.47959253333333 -s 1 -d 2 -p sctp -e 1500 -c 1 -i 16 -a 1 -x {0.0 2.0 -1 ------- null}
h -t 1.47959253333333 -s 1 -d 2 -p sctp -e 1500 -c 1 -i 16 -a 1 -x {0.0 2.0 -1 ------- null}
- -t 1.48359253333333 -s 1 -d 2 -p sctp -e 1500 -c 1 -i 17 -a 1 -x {0.0 2.0 -1 ------- null}
h -t 1.48359253333333 -s 1 -d 2 -p sctp -e 1500 -c 1 -i 17 -a 1 -x {0.0 2.0 -1 ------- null}
r -t 1.55159253333333 -s 1 -d 2 -p sctp -e 1500 -c 1 -i 13 -a 1 -x {0.0 2.0 -1 ------- null}
r -t 1.55559253333333 -s 1 -d 2 -p sctp -e 1500 -c 1 -i 14 -a 1 -x {0.0 2.0 -1 ------- null}
+ -t 1.55559253333333 -s 2 -d 1 -p sctp -e 48 -c 0 -i 18 -a 0 -x {2.0 0.0 -1 ------- null}
- -t 1.55559253333333 -s 2 -d 1 -p sctp -e 48 -c 0 -i 18 -a 0 -x {2.0 0.0 -1 ------- null}
h -t 1.55559253333333 -s 2 -d 1 -p sctp -e 48 -c 0 -i 18 -a 0 -x {2.0 0.0 -1 ------- null}
r -t 1.55959253333333 -s 1 -d 2 -p sctp -e 1500 -c 1 -i 15 -a 1 -x {0.0 2.0 -1 ------- null}
r -t 1.56359253333333 -s 1 -d 2 -p sctp -e 1500 -c 1 -i 16 -a 1 -x {0.0 2.0 -1 ------- null}
+ -t 1.56359253333333 -s 2 -d 1 -p sctp -e 48 -c 0 -i 19 -a 0 -x {2.0 0.0 -1 ------- null}
- -t 1.56359253333333 -s 2 -d 1 -p sctp -e 48 -c 0 -i 19 -a 0 -x {2.0 0.0 -1 ------- null}
h -t 1.56359253333333 -s 2 -d 1 -p sctp -e 48 -c 0 -i 19 -a 0 -x {2.0 0.0 -1 ------- null}
r -t 1.56759253333333 -s 1 -d 2 -p sctp -e 1500 -c 1 -i 17 -a 1 -x {0.0 2.0 -1 ------- null}
r -t 1.63572053333333 -s 2 -d 1 -p sctp -e 48 -c 0 -i 18 -a 0 -x {2.0 0.0 -1 ------- null}
+ -t 1.63572053333333 -s 1 -d 0 -p sctp -e 48 -c 0 -i 18 -a 0 -x {2.0 0.0 -1 ------- null}
- -t 1.63572053333333 -s 1 -d 0 -p sctp -e 48 -c 0 -i 18 -a 0 -x {2.0 0.0 -1 ------- null}
h -t 1.63572053333333 -s 1 -d 0 -p sctp -e 48 -c 0 -i 18 -a 0 -x {2.0 0.0 -1 ------- null}
r -t 1.64372053333333 -s 2 -d 1 -p sctp -e 48 -c 0 -i 19 -a 0 -x {2.0 0.0 -1 ------- null}
+ -t 1.64372053333333 -s 1 -d 0 -p sctp -e 48 -c 0 -i 19 -a 0 -x {2.0 0.0 -1 ------- null}
- -t 1.64372053333333 -s 1 -d 0 -p sctp -e 48 -c 0 -i 19 -a 0 -x {2.0 0.0 -1 ------- null}
h -t 1.64372053333333 -s 1 -d 0 -p sctp -e 48 -c 0 -i 19 -a 0 -x {2.0 0.0 -1 ------- null}
r -t 1.71575893333333 -s 1 -d 0 -p sctp -e 48 -c 0 -i 18 -a 0 -x {2.0 0.0 -1 ------- null}
+ -t 1.71575893333333 -s 0 -d 1 -p sctp -e 1500 -c 1 -i 20 -a 1 -x {0.0 2.0 -1 ------- null}
- -t 1.71575893333333 -s 0 -d 1 -p sctp -e 1500 -c 1 -i 20 -a 1 -x {0.0 2.0 -1 ------- null}
h -t 1.71575893333333 -s 0 -d 1 -p sctp -e 1500 -c 1 -i 20 -a 1 -x {0.0 2.0 -1 ------- null}
+ -t 1.71575893333333 -s 0 -d 1 -p sctp -e 1500 -c 1 -i 21 -a 1 -x {0.0 2.0 -1 ------- null}
+ -t 1.71575893333333 -s 0 -d 1 -p sctp -e 1500 -c 1 -i 22 -a 1 -x {0.0 2.0 -1 ------- null}
- -t 1.71695893333333 -s 0 -d 1 -p sctp -e 1500 -c 1 -i 21 -a 1 -x {0.0 2.0 -1 ------- null}
h -t 1.71695893333333 -s 0 -d 1 -p sctp -e 1500 -c 1 -i 21 -a 1 -x {0.0 2.0 -1 ------- null}
- -t 1.71815893333333 -s 0 -d 1 -p sctp -e 1500 -c 1 -i 22 -a 1 -x {0.0 2.0 -1 ------- null}
h -t 1.71815893333333 -s 0 -d 1 -p sctp -e 1500 -c 1 -i 22 -a 1 -x {0.0 2.0 -1 ------- null}
r -t 1.72375893333333 -s 1 -d 0 -p sctp -e 48 -c 0 -i 19 -a 0 -x {2.0 0.0 -1 ------- null}
+ -t 1.72375893333333 -s 0 -d 1 -p sctp -e 1500 -c 1 -i 23 -a 1 -x {0.0 2.0 -1 ------- null}
- -t 1.72375893333333 -s 0 -d 1 -p sctp -e 1500 -c 1 -i 23 -a 1 -x {0.0 2.0 -1 ------- null}
h -t 1.72375893333333 -s 0 -d 1 -p sctp -e 1500 -c 1 -i 23 -a 1 -x {0.0 2.0 -1 ------- null}
+ -t 1.72375893333333 -s 0 -d 1 -p sctp -e 1500 -c 1 -i 24 -a 1 -x {0.0 2.0 -1 ------- null}
+ -t 1.72375893333333 -s 0 -d 1 -p sctp -e 1500 -c 1 -i 25 -a 1 -x {0.0 2.0 -1 ------- null}
- -t 1.72495893333333 -s 0 -d 1 -p sctp -e 1500 -c 1 -i 24 -a 1 -x {0.0 2.0 -1 ------- null}
h -t 1.72495893333333 -s 0 -d 1 -p sctp -e 1500 -c 1 -i 24 -a 1 -x {0.0 2.0 -1 ------- null}
- -t 1.72615893333333 -s 0 -d 1 -p sctp -e 1500 -c 1 -i 25 -a 1 -x {0.0 2.0 -1 ------- null}
h -t 1.72615893333333 -s 0 -d 1 -p sctp -e 1500 -c 1 -i 25 -a 1 -x {0.0 2.0 -1 ------- null}
+ -t 1.76759253333333 -s 2 -d 1 -p sctp -e 48 -c 0 -i 26 -a 0 -x {2.0 0.0 -1 ------- null}
- -t 1.76759253333333 -s 2 -d 1 -p sctp -e 48 -c 0 -i 26 -a 0 -x {2.0 0.0 -1 ------- null}
h -t 1.76759253333333 -s 2 -d 1 -p sctp -e 48 -c 0 -i 26 -a 0 -x {2.0 0.0 -1 ------- null}
r -t 1.79695893333333 -s 0 -d 1 -p sctp -e 1500 -c 1 -i 20 -a 1 -x {0.0 2.0 -1 ------- null}
+ -t 1.79695893333333 -s 1 -d 2 -p sctp -e 1500 -c 1 -i 20 -a 1 -x {0.0 2.0 -1 ------- null}
- -t 1.79695893333333 -s 1 -d 2 -p sctp -e 1500 -c 1 -i 20 -a 1 -x {0.0 2.0 -1 ------- null}
h -t 1.79695893333333 -s 1 -d 2 -p sctp -e 1500 -c 1 -i 20 -a 1 -x {0.0 2.0 -1 ------- null}
r -t 1.79815893333333 -s 0 -d 1 -p sctp -e 1500 -c 1 -i 21 -a 1 -x {0.0 2.0 -1 ------- null}
+ -t 1.79815893333333 -s 1 -d 2 -p sctp -e 1500 -c 1 -i 21 -a 1 -x {0.0 2.0 -1 ------- null}
r -t 1.79935893333333 -s 0 -d 1 -p sctp -e 1500 -c 1 -i 22 -a 1 -x {0.0 2.0 -1 ------- null}
+ -t 1.79935893333333 -s 1 -d 2 -p sctp -e 1500 -c 1 -i 22 -a 1 -x {0.0 2.0 -1 ------- null}
- -t 1.80095893333333 -s 1 -d 2 -p sctp -e 1500 -c 1 -i 21 -a 1 -x {0.0 2.0 -1 ------- null}
h -t 1.80095893333333 -s 1 -d 2 -p sctp -e 1500 -c 1 -i 21 -a 1 -x {0.0 2.0 -1 ------- null}
r -t 1.80495893333333 -s 0 -d 1 -p sctp -e 1500 -c 1 -i 23 -a 1 -x {0.0 2.0 -1 ------- null}
+ -t 1.80495893333333 -s 1 -d 2 -p sctp -e 1500 -c 1 -i 23 -a 1 -x {0.0 2.0 -1 ------- null}
- -t 1.80495893333333 -s 1 -d 2 -p sctp -e 1500 -c 1 -i 22 -a 1 -x {0.0 2.0 -1 ------- null}
h -t 1.80495893333333 -s 1 -d 2 -p sctp -e 1500 -c 1 -i 22 -a 1 -x {0.0 2.0 -1 ------- null}
r -t 1.80615893333333 -s 0 -d 1 -p sctp -e 1500 -c 1 -i 24 -a 1 -x {0.0 2.0 -1 ------- null}
+ -t 1.80615893333333 -s 1 -d 2 -p sctp -e 1500 -c 1 -i 24 -a 1 -x {0.0 2.0 -1 ------- null}
r -t 1.80735893333333 -s 0 -d 1 -p sctp -e 1500 -c 1 -i 25 -a 1 -x {0.0 2.0 -1 ------- null}
+ -t 1.80735893333333 -s 1 -d 2 -p sctp -e 1500 -c 1 -i 25 -a 1 -x {0.0 2.0 -1 ------- null}
- -t 1.80895893333333 -s 1 -d 2 -p sctp -e 1500 -c 1 -i 23 -a 1 -x {0.0 2.0 -1 ------- null}
h -t 1.80895893333333 -s 1 -d 2 -p sctp -e 1500 -c 1 -i 23 -a 1 -x {0.0 2.0 -1 ------- null}
- -t 1.81295893333333 -s 1 -d 2 -p sctp -e 1500 -c 1 -i 24 -a 1 -x {0.0 2.0 -1 ------- null}
h -t 1.81295893333333 -s 1 -d 2 -p sctp -e 1500 -c 1 -i 24 -a 1 -x {0.0 2.0 -1 ------- null}
- -t 1.81695893333333 -s 1 -d 2 -p sctp -e 1500 -c 1 -i 25 -a 1 -x {0.0 2.0 -1 ------- null}
h -t 1.81695893333333 -s 1 -d 2 -p sctp -e 1500 -c 1 -i 25 -a 1 -x {0.0 2.0 -1 ------- null}
r -t 1.84772053333333 -s 2 -d 1 -p sctp -e 48 -c 0 -i 26 -a 0 -x {2.0 0.0 -1 ------- null}
+ -t 1.84772053333333 -s 1 -d 0 -p sctp -e 48 -c 0 -i 26 -a 0 -x {2.0 0.0 -1 ------- null}
- -t 1.84772053333333 -s 1 -d 0 -p sctp -e 48 -c 0 -i 26 -a 0 -x {2.0 0.0 -1 ------- null}
h -t 1.84772053333333 -s 1 -d 0 -p sctp -e 48 -c 0 -i 26 -a 0 -x {2.0 0.0 -1 ------- null}
r -t 1.88095893333333 -s 1 -d 2 -p sctp -e 1500 -c 1 -i 20 -a 1 -x {0.0 2.0 -1 ------- null}
r -t 1.88495893333333 -s 1 -d 2 -p sctp -e 1500 -c 1 -i 21 -a 1 -x {0.0 2.0 -1 ------- null}
+ -t 1.88495893333333 -s 2 -d 1 -p sctp -e 48 -c 0 -i 27 -a 0 -x {2.0 0.0 -1 ------- null}
- -t 1.88495893333333 -s 2 -d 1 -p sctp -e 48 -c 0 -i 27 -a 0 -x {2.0 0.0 -1 ------- null}
h -t 1.88495893333333 -s 2 -d 1 -p sctp -e 48 -c 0 -i 27 -a 0 -x {2.0 0.0 -1 ------- null}
r -t 1.88895893333333 -s 1 -d 2 -p sctp -e 1500 -c 1 -i 22 -a 1 -x {0.0 2.0 -1 ------- null}
r -t 1.89295893333333 -s 1 -d 2 -p sctp -e 1500 -c 1 -i 23 -a 1 -x {0.0 2.0 -1 ------- null}
+ -t 1.89295893333333 -s 2 -d 1 -p sctp -e 48 -c 0 -i 28 -a 0 -x {2.0 0.0 -1 ------- null}
- -t 1.89295893333333 -s 2 -d 1 -p sctp -e 48 -c 0 -i 28 -a 0 -x {2.0 0.0 -1 ------- null}
h -t 1.89295893333333 -s 2 -d 1 -p sctp -e 48 -c 0 -i 28 -a 0 -x {2.0 0.0 -1 ------- null}
r -t 1.89695893333333 -s 1 -d 2 -p sctp -e 1500 -c 1 -i 24 -a 1 -x {0.0 2.0 -1 ------- null}
r -t 1.90095893333333 -s 1 -d 2 -p sctp -e 1500 -c 1 -i 25 -a 1 -x {0.0 2.0 -1 ------- null}
+ -t 1.90095893333333 -s 2 -d 1 -p sctp -e 48 -c 0 -i 29 -a 0 -x {2.0 0.0 -1 ------- null}
- -t 1.90095893333333 -s 2 -d 1 -p sctp -e 48 -c 0 -i 29 -a 0 -x {2.0 0.0 -1 ------- null}
h -t 1.90095893333333 -s 2 -d 1 -p sctp -e 48 -c 0 -i 29 -a 0 -x {2.0 0.0 -1 ------- null}
r -t 1.92775893333333 -s 1 -d 0 -p sctp -e 48 -c 0 -i 26 -a 0 -x {2.0 0.0 -1 ------- null}
+ -t 1.92775893333333 -s 0 -d 1 -p sctp -e 1500 -c 1 -i 30 -a 1 -x {0.0 2.0 -1 ------- null}
- -t 1.92775893333333 -s 0 -d 1 -p sctp -e 1500 -c 1 -i 30 -a 1 -x {0.0 2.0 -1 ------- null}
h -t 1.92775893333333 -s 0 -d 1 -p sctp -e 1500 -c 1 -i 30 -a 1 -x {0.0 2.0 -1 ------- null}
+ -t 1.92775893333333 -s 0 -d 1 -p sctp -e 1500 -c 1 -i 31 -a 1 -x {0.0 2.0 -1 ------- null}
- -t 1.92895893333333 -s 0 -d 1 -p sctp -e 1500 -c 1 -i 31 -a 1 -x {0.0 2.0 -1 ------- null}
h -t 1.92895893333333 -s 0 -d 1 -p sctp -e 1500 -c 1 -i 31 -a 1 -x {0.0 2.0 -1 ------- null}
r -t 1.96508693333333 -s 2 -d 1 -p sctp -e 48 -c 0 -i 27 -a 0 -x {2.0 0.0 -1 ------- null}
+ -t 1.96508693333333 -s 1 -d 0 -p sctp -e 48 -c 0 -i 27 -a 0 -x {2.0 0.0 -1 ------- null}
- -t 1.96508693333333 -s 1 -d 0 -p sctp -e 48 -c 0 -i 27 -a 0 -x {2.0 0.0 -1 ------- null}
h -t 1.96508693333333 -s 1 -d 0 -p sctp -e 48 -c 0 -i 27 -a 0 -x {2.0 0.0 -1 ------- null}
r -t 1.97308693333333 -s 2 -d 1 -p sctp -e 48 -c 0 -i 28 -a 0 -x {2.0 0.0 -1 ------- null}
+ -t 1.97308693333333 -s 1 -d 0 -p sctp -e 48 -c 0 -i 28 -a 0 -x {2.0 0.0 -1 ------- null}
- -t 1.97308693333333 -s 1 -d 0 -p sctp -e 48 -c 0 -i 28 -a 0 -x {2.0 0.0 -1 ------- null}
h -t 1.97308693333333 -s 1 -d 0 -p sctp -e 48 -c 0 -i 28 -a 0 -x {2.0 0.0 -1 ------- null}
r -t 1.98108693333333 -s 2 -d 1 -p sctp -e 48 -c 0 -i 29 -a 0 -x {2.0 0.0 -1 ------- null}
+ -t 1.98108693333333 -s 1 -d 0 -p sctp -e 48 -c 0 -i 29 -a 0 -x {2.0 0.0 -1 ------- null}
- -t 1.98108693333333 -s 1 -d 0 -p sctp -e 48 -c 0 -i 29 -a 0 -x {2.0 0.0 -1 ------- null}
h -t 1.98108693333333 -s 1 -d 0 -p sctp -e 48 -c 0 -i 29 -a 0 -x {2.0 0.0 -1 ------- null}
r -t 2.00895893333333 -s 0 -d 1 -p sctp -e 1500 -c 1 -i 30 -a 1 -x {0.0 2.0 -1 ------- null}
+ -t 2.00895893333333 -s 1 -d 2 -p sctp -e 1500 -c 1 -i 30 -a 1 -x {0.0 2.0 -1 ------- null}
- -t 2.00895893333333 -s 1 -d 2 -p sctp -e 1500 -c 1 -i 30 -a 1 -x {0.0 2.0 -1 ------- null}
h -t 2.00895893333333 -s 1 -d 2 -p sctp -e 1500 -c 1 -i 30 -a 1 -x {0.0 2.0 -1 ------- null}
r -t 2.01015893333333 -s 0 -d 1 -p sctp -e 1500 -c 1 -i 31 -a 1 -x {0.0 2.0 -1 ------- null}
+ -t 2.01015893333333 -s 1 -d 2 -p sctp -e 1500 -c 1 -i 31 -a 1 -x {0.0 2.0 -1 ------- null}
- -t 2.01295893333333 -s 1 -d 2 -p sctp -e 1500 -c 1 -i 31 -a 1 -x {0.0 2.0 -1 ------- null}
h -t 2.01295893333333 -s 1 -d 2 -p sctp -e 1500 -c 1 -i 31 -a 1 -x {0.0 2.0 -1 ------- null}
r -t 2.04512533333333 -s 1 -d 0 -p sctp -e 48 -c 0 -i 27 -a 0 -x {2.0 0.0 -1 ------- null}
+ -t 2.04512533333333 -s 0 -d 1 -p sctp -e 1500 -c 1 -i 32 -a 1 -x {0.0 2.0 -1 ------- null}
- -t 2.04512533333333 -s 0 -d 1 -p sctp -e 1500 -c 1 -i 32 -a 1 -x {0.0 2.0 -1 ------- null}
h -t 2.04512533333333 -s 0 -d 1 -p sctp -e 1500 -c 1 -i 32 -a 1 -x {0.0 2.0 -1 ------- null}
+ -t 2.04512533333333 -s 0 -d 1 -p sctp -e 1500 -c 1 -i 33 -a 1 -x {0.0 2.0 -1 ------- null}
+ -t 2.04512533333333 -s 0 -d 1 -p sctp -e 1500 -c 1 -i 34 -a 1 -x {0.0 2.0 -1 ------- null}
- -t 2.04632533333333 -s 0 -d 1 -p sctp -e 1500 -c 1 -i 33 -a 1 -x {0.0 2.0 -1 ------- null}
h -t 2.04632533333333 -s 0 -d 1 -p sctp -e 1500 -c 1 -i 33 -a 1 -x {0.0 2.0 -1 ------- null}
- -t 2.04752533333333 -s 0 -d 1 -p sctp -e 1500 -c 1 -i 34 -a 1 -x {0.0 2.0 -1 ------- null}
h -t 2.04752533333333 -s 0 -d 1 -p sctp -e 1500 -c 1 -i 34 -a 1 -x {0.0 2.0 -1 ------- null}
r -t 2.05312533333333 -s 1 -d 0 -p sctp -e 48 -c 0 -i 28 -a 0 -x {2.0 0.0 -1 ------- null}
+ -t 2.05312533333333 -s 0 -d 1 -p sctp -e 1500 -c 1 -i 35 -a 1 -x {0.0 2.0 -1 ------- null}
- -t 2.05312533333333 -s 0 -d 1 -p sctp -e 1500 -c 1 -i 35 -a 1 -x {0.0 2.0 -1 ------- null}
h -t 2.05312533333333 -s 0 -d 1 -p sctp -e 1500 -c 1 -i 35 -a 1 -x {0.0 2.0 -1 ------- null}
+ -t 2.05312533333333 -s 0 -d 1 -p sctp -e 1500 -c 1 -i 36 -a 1 -x {0.0 2.0 -1 ------- null}
+ -t 2.05312533333333 -s 0 -d 1 -p sctp -e 1500 -c 1 -i 37 -a 1 -x {0.0 2.0 -1 ------- null}
- -t 2.05432533333333 -s 0 -d 1 -p sctp -e 1500 -c 1 -i 36 -a 1 -x {0.0 2.0 -1 ------- null}
h -t 2.05432533333333 -s 0 -d 1 -p sctp -e 1500 -c 1 -i 36 -a 1 -x {0.0 2.0 -1 ------- null}
- -t 2.05552533333333 -s 0 -d 1 -p sctp -e 1500 -c 1 -i 37 -a 1 -x {0.0 2.0 -1 ------- null}
h -t 2.05552533333333 -s 0 -d 1 -p sctp -e 1500 -c 1 -i 37 -a 1 -x {0.0 2.0 -1 ------- null}
r -t 2.06112533333333 -s 1 -d 0 -p sctp -e 48 -c 0 -i 29 -a 0 -x {2.0 0.0 -1 ------- null}
+ -t 2.06112533333333 -s 0 -d 1 -p sctp -e 1500 -c 1 -i 38 -a 1 -x {0.0 2.0 -1 ------- null}
- -t 2.06112533333333 -s 0 -d 1 -p sctp -e 1500 -c 1 -i 38 -a 1 -x {0.0 2.0 -1 ------- null}
h -t 2.06112533333333 -s 0 -d 1 -p sctp -e 1500 -c 1 -i 38 -a 1 -x {0.0 2.0 -1 ------- null}
+ -t 2.06112533333333 -s 0 -d 1 -p sctp -e 1500 -c 1 -i 39 -a 1 -x {0.0 2.0 -1 ------- null}
+ -t 2.06112533333333 -s 0 -d 1 -p sctp -e 1500 -c 1 -i 40 -a 1 -x {0.0 2.0 -1 ------- null}
- -t 2.06232533333333 -s 0 -d 1 -p sctp -e 1500 -c 1 -i 39 -a 1 -x {0.0 2.0 -1 ------- null}
h -t 2.06232533333333 -s 0 -d 1 -p sctp -e 1500 -c 1 -i 39 -a 1 -x {0.0 2.0 -1 ------- null}
- -t 2.06352533333333 -s 0 -d 1 -p sctp -e 1500 -c 1 -i 40 -a 1 -x {0.0 2.0 -1 ------- null}
h -t 2.06352533333333 -s 0 -d 1 -p sctp -e 1500 -c 1 -i 40 -a 1 -x {0.0 2.0 -1 ------- null}
r -t 2.09295893333333 -s 1 -d 2 -p sctp -e 1500 -c 1 -i 30 -a 1 -x {0.0 2.0 -1 ------- null}
r -t 2.09695893333333 -s 1 -d 2 -p sctp -e 1500 -c 1 -i 31 -a 1 -x {0.0 2.0 -1 ------- null}
+ -t 2.09695893333333 -s 2 -d 1 -p sctp -e 48 -c 0 -i 41 -a 0 -x {2.0 0.0 -1 ------- null}
- -t 2.09695893333333 -s 2 -d 1 -p sctp -e 48 -c 0 -i 41 -a 0 -x {2.0 0.0 -1 ------- null}
h -t 2.09695893333333 -s 2 -d 1 -p sctp -e 48 -c 0 -i 41 -a 0 -x {2.0 0.0 -1 ------- null}
r -t 2.12632533333333 -s 0 -d 1 -p sctp -e 1500 -c 1 -i 32 -a 1 -x {0.0 2.0 -1 ------- null}
+ -t 2.12632533333333 -s 1 -d 2 -p sctp -e 1500 -c 1 -i 32 -a 1 -x {0.0 2.0 -1 ------- null}
- -t 2.12632533333333 -s 1 -d 2 -p sctp -e 1500 -c 1 -i 32 -a 1 -x {0.0 2.0 -1 ------- null}
h -t 2.12632533333333 -s 1 -d 2 -p sctp -e 1500 -c 1 -i 32 -a 1 -x {0.0 2.0 -1 ------- null}
r -t 2.12752533333333 -s 0 -d 1 -p sctp -e 1500 -c 1 -i 33 -a 1 -x {0.0 2.0 -1 ------- null}
+ -t 2.12752533333333 -s 1 -d 2 -p sctp -e 1500 -c 1 -i 33 -a 1 -x {0.0 2.0 -1 ------- null}
r -t 2.12872533333333 -s 0 -d 1 -p sctp -e 1500 -c 1 -i 34 -a 1 -x {0.0 2.0 -1 ------- null}
+ -t 2.12872533333333 -s 1 -d 2 -p sctp -e 1500 -c 1 -i 34 -a 1 -x {0.0 2.0 -1 ------- null}
- -t 2.13032533333333 -s 1 -d 2 -p sctp -e 1500 -c 1 -i 33 -a 1 -x {0.0 2.0 -1 ------- null}
h -t 2.13032533333333 -s 1 -d 2 -p sctp -e 1500 -c 1 -i 33 -a 1 -x {0.0 2.0 -1 ------- null}
r -t 2.13432533333333 -s 0 -d 1 -p sctp -e 1500 -c 1 -i 35 -a 1 -x {0.0 2.0 -1 ------- null}
+ -t 2.13432533333333 -s 1 -d 2 -p sctp -e 1500 -c 1 -i 35 -a 1 -x {0.0 2.0 -1 ------- null}
- -t 2.13432533333333 -s 1 -d 2 -p sctp -e 1500 -c 1 -i 34 -a 1 -x {0.0 2.0 -1 ------- null}
h -t 2.13432533333333 -s 1 -d 2 -p sctp -e 1500 -c 1 -i 34 -a 1 -x {0.0 2.0 -1 ------- null}
r -t 2.13552533333333 -s 0 -d 1 -p sctp -e 1500 -c 1 -i 36 -a 1 -x {0.0 2.0 -1 ------- null}
+ -t 2.13552533333333 -s 1 -d 2 -p sctp -e 1500 -c 1 -i 36 -a 1 -x {0.0 2.0 -1 ------- null}
r -t 2.13672533333333 -s 0 -d 1 -p sctp -e 1500 -c 1 -i 37 -a 1 -x {0.0 2.0 -1 ------- null}
+ -t 2.13672533333333 -s 1 -d 2 -p sctp -e 1500 -c 1 -i 37 -a 1 -x {0.0 2.0 -1 ------- null}
- -t 2.13832533333333 -s 1 -d 2 -p sctp -e 1500 -c 1 -i 35 -a 1 -x {0.0 2.0 -1 ------- null}
h -t 2.13832533333333 -s 1 -d 2 -p sctp -e 1500 -c 1 -i 35 -a 1 -x {0.0 2.0 -1 ------- null}
r -t 2.14232533333333 -s 0 -d 1 -p sctp -e 1500 -c 1 -i 38 -a 1 -x {0.0 2.0 -1 ------- null}
+ -t 2.14232533333333 -s 1 -d 2 -p sctp -e 1500 -c 1 -i 38 -a 1 -x {0.0 2.0 -1 ------- null}
- -t 2.14232533333333 -s 1 -d 2 -p sctp -e 1500 -c 1 -i 36 -a 1 -x {0.0 2.0 -1 ------- null}
h -t 2.14232533333333 -s 1 -d 2 -p sctp -e 1500 -c 1 -i 36 -a 1 -x {0.0 2.0 -1 ------- null}
r -t 2.14352533333333 -s 0 -d 1 -p sctp -e 1500 -c 1 -i 39 -a 1 -x {0.0 2.0 -1 ------- null}
+ -t 2.14352533333333 -s 1 -d 2 -p sctp -e 1500 -c 1 -i 39 -a 1 -x {0.0 2.0 -1 ------- null}
r -t 2.14472533333333 -s 0 -d 1 -p sctp -e 1500 -c 1 -i 40 -a 1 -x {0.0 2.0 -1 ------- null}
+ -t 2.14472533333333 -s 1 -d 2 -p sctp -e 1500 -c 1 -i 40 -a 1 -x {0.0 2.0 -1 ------- null}
- -t 2.14632533333333 -s 1 -d 2 -p sctp -e 1500 -c 1 -i 37 -a 1 -x {0.0 2.0 -1 ------- null}
h -t 2.14632533333333 -s 1 -d 2 -p sctp -e 1500 -c 1 -i 37 -a 1 -x {0.0 2.0 -1 ------- null}
- -t 2.15032533333333 -s 1 -d 2 -p sctp -e 1500 -c 1 -i 38 -a 1 -x {0.0 2.0 -1 ------- null}
h -t 2.15032533333333 -s 1 -d 2 -p sctp -e 1500 -c 1 -i 38 -a 1 -x {0.0 2.0 -1 ------- null}
- -t 2.15432533333333 -s 1 -d 2 -p sctp -e 1500 -c 1 -i 39 -a 1 -x {0.0 2.0 -1 ------- null}
h -t 2.15432533333333 -s 1 -d 2 -p sctp -e 1500 -c 1 -i 39 -a 1 -x {0.0 2.0 -1 ------- null}
- -t 2.15832533333333 -s 1 -d 2 -p sctp -e 1500 -c 1 -i 40 -a 1 -x {0.0 2.0 -1 ------- null}
h -t 2.15832533333333 -s 1 -d 2 -p sctp -e 1500 -c 1 -i 40 -a 1 -x {0.0 2.0 -1 ------- null}
r -t 2.17708693333333 -s 2 -d 1 -p sctp -e 48 -c 0 -i 41 -a 0 -x {2.0 0.0 -1 ------- null}
+ -t 2.17708693333333 -s 1 -d 0 -p sctp -e 48 -c 0 -i 41 -a 0 -x {2.0 0.0 -1 ------- null}
- -t 2.17708693333333 -s 1 -d 0 -p sctp -e 48 -c 0 -i 41 -a 0 -x {2.0 0.0 -1 ------- null}
h -t 2.17708693333333 -s 1 -d 0 -p sctp -e 48 -c 0 -i 41 -a 0 -x {2.0 0.0 -1 ------- null}
r -t 2.21032533333333 -s 1 -d 2 -p sctp -e 1500 -c 1 -i 32 -a 1 -x {0.0 2.0 -1 ------- null}
r -t 2.21432533333333 -s 1 -d 2 -p sctp -e 1500 -c 1 -i 33 -a 1 -x {0.0 2.0 -1 ------- null}
+ -t 2.21432533333333 -s 2 -d 1 -p sctp -e 48 -c 0 -i 42 -a 0 -x {2.0 0.0 -1 ------- null}
- -t 2.21432533333333 -s 2 -d 1 -p sctp -e 48 -c 0 -i 42 -a 0 -x {2.0 0.0 -1 ------- null}
h -t 2.21432533333333 -s 2 -d 1 -p sctp -e 48 -c 0 -i 42 -a 0 -x {2.0 0.0 -1 ------- null}
r -t 2.21832533333333 -s 1 -d 2 -p sctp -e 1500 -c 1 -i 34 -a 1 -x {0.0 2.0 -1 ------- null}
r -t 2.22232533333333 -s 1 -d 2 -p sctp -e 1500 -c 1 -i 35 -a 1 -x {0.0 2.0 -1 ------- null}
+ -t 2.22232533333333 -s 2 -d 1 -p sctp -e 48 -c 0 -i 43 -a 0 -x {2.0 0.0 -1 ------- null}
- -t 2.22232533333333 -s 2 -d 1 -p sctp -e 48 -c 0 -i 43 -a 0 -x {2.0 0.0 -1 ------- null}
h -t 2.22232533333333 -s 2 -d 1 -p sctp -e 48 -c 0 -i 43 -a 0 -x {2.0 0.0 -1 ------- null}
r -t 2.22632533333333 -s 1 -d 2 -p sctp -e 1500 -c 1 -i 36 -a 1 -x {0.0 2.0 -1 ------- null}
r -t 2.23032533333333 -s 1 -d 2 -p sctp -e 1500 -c 1 -i 37 -a 1 -x {0.0 2.0 -1 ------- null}