+ 0.1 0 1 sctp 56 ------- 1 0.0 2.0 -1 2
- 0.1 0 1 sctp 56 ------- 1 0.0 2.0 -1 2
r 0.180045 0 1 sctp 56 ------- 1 0.0 2.0 -1 2
+ 0.180045 1 2 sctp 56 ------- 1 0.0 2.0 -1 2
- 0.180045 1 2 sctp 56 ------- 1 0.0 2.0 -1 2
r 0.26009 1 2 sctp 56 ------- 1 0.0 2.0 -1 2
+ 0.26009 2 1 sctp 56 ------- 0 2.0 0.0 -1 3
- 0.26009 2 1 sctp 56 ------- 0 2.0 0.0 -1 3
r 0.340134 2 1 sctp 56 ------- 0 2.0 0.0 -1 3
+ 0.340134 1 0 sctp 56 ------- 0 2.0 0.0 -1 3
- 0.340134 1 0 sctp 56 ------- 0 2.0 0.0 -1 3
r 0.420179 1 0 sctp 56 ------- 0 2.0 0.0 -1 3
+ 0.420179 0 1 sctp 36 ------- 1 0.0 2.0 -1 4
- 0.420179 0 1 sctp 36 ------- 1 0.0 2.0 -1 4
r 0.500208 0 1 sctp 36 ------- 1 0.0 2.0 -1 4
+ 0.500208 1 2 sctp 36 ------- 1 0.0 2.0 -1 4
- 0.500208 1 2 sctp 36 ------- 1 0.0 2.0 -1 4
r 0.580237 1 2 sctp 36 ------- 1 0.0 2.0 -1 4
+ 0.580237 2 1 sctp 36 ------- 0 2.0 0.0 -1 5
- 0.580237 2 1 sctp 36 ------- 0 2.0 0.0 -1 5
r 0.660266 2 1 sctp 36 ------- 0 2.0 0.0 -1 5
+ 0.660266 1 0 sctp 36 ------- 0 2.0 0.0 -1 5
- 0.660266 1 0 sctp 36 ------- 0 2.0 0.0 -1 5
r 0.740294 1 0 sctp 36 ------- 0 2.0 0.0 -1 5
+ 0.740294 0 1 sctp 56 ------- 1 0.0 2.0 -1 6
- 0.740294 0 1 sctp 56 ------- 1 0.0 2.0 -1 6
r 0.820339 0 1 sctp 56 ------- 1 0.0 2.0 -1 6
+ 0.820339 1 2 sctp 56 ------- 1 0.0 2.0 -1 6
- 0.820339 1 2 sctp 56 ------- 1 0.0 2.0 -1 6
r 0.900384 1 2 sctp 56 ------- 1 0.0 2.0 -1 6
+ 0.900384 2 1 sctp 56 ------- 0 2.0 0.0 -1 7
- 0.900384 2 1 sctp 56 ------- 0 2.0 0.0 -1 7
r 0.980429 2 1 sctp 56 ------- 0 2.0 0.0 -1 7
+ 0.980429 1 0 sctp 56 ------- 0 2.0 0.0 -1 7
- 0.980429 1 0 sctp 56 ------- 0 2.0 0.0 -1 7
r 1.060474 1 0 sctp 56 ------- 0 2.0 0.0 -1 7
+ 1.060474 0 1 sctp 1500 ------- 1 0.0 2.0 -1 8
- 1.060474 0 1 sctp 1500 ------- 1 0.0 2.0 -1 8
+ 1.060474 0 1 sctp 1500 ------- 1 0.0 2.0 -1 9
+ 1.060474 0 1 sctp 1500 ------- 1 0.0 2.0 -1 10
- 1.061674 0 1 sctp 1500 ------- 1 0.0 2.0 -1 9
- 1.062874 0 1 sctp 1500 ------- 1 0.0 2.0 -1 10
r 1.141674 0 1 sctp 1500 ------- 1 0.0 2.0 -1 8
+ 1.141674 1 2 sctp 1500 ------- 1 0.0 2.0 -1 8
- 1.141674 1 2 sctp 1500 ------- 1 0.0 2.0 -1 8
r 1.142874 0 1 sctp 1500 ------- 1 0.0 2.0 -1 9
+ 1.142874 1 2 sctp 1500 ------- 1 0.0 2.0 -1 9
- 1.142874 1 2 sctp 1500 ------- 1 0.0 2.0 -1 9
r 1.144074 0 1 sctp 1500 ------- 1 0.0 2.0 -1 10
+ 1.144074 1 2 sctp 1500 ------- 1 0.0 2.0 -1 10
- 1.144074 1 2 sctp 1500 ------- 1 0.0 2.0 -1 10
r 1.222874 1 2 sctp 1500 ------- 1 0.0 2.0 -1 8
+ 1.222874 2 1 sctp 48 ------- 0 2.0 0.0 -1 11
- 1.222874 2 1 sctp 48 ------- 0 2.0 0.0 -1 11
r 1.224074 1 2 sctp 1500 ------- 1 0.0 2.0 -1 9
r 1.225274 1 2 sctp 1500 ------- 1 0.0 2.0 -1 10
+ 1.225274 2 1 sctp 48 ------- 0 2.0 0.0 -1 12
- 1.225274 2 1 sctp 48 ------- 0 2.0 0.0 -1 12
r 1.302912 2 1 sctp 48 ------- 0 2.0 0.0 -1 11
+ 1.302912 1 0 sctp 48 ------- 0 2.0 0.0 -1 11
- 1.302912 1 0 sctp 48 ------- 0 2.0 0.0 -1 11
r 1.305312 2 1 sctp 48 ------- 0 2.0 0.0 -1 12
+ 1.305312 1 0 sctp 48 ------- 0 2.0 0.0 -1 12
- 1.305312 1 0 sctp 48 ------- 0 2.0 0.0 -1 12
r 1.38295 1 0 sctp 48 ------- 0 2.0 0.0 -1 11
+ 1.38295 0 1 sctp 1500 ------- 1 0.0 2.0 -1 13
- 1.38295 0 1 sctp 1500 ------- 1 0.0 2.0 -1 13
+ 1.38295 0 1 sctp 1500 ------- 1 0.0 2.0 -1 14
- 1.38415 0 1 sctp 1500 ------- 1 0.0 2.0 -1 14
r 1.38535 1 0 sctp 48 ------- 0 2.0 0.0 -1 12
+ 1.38535 0 1 sctp 1500 ------- 1 0.0 2.0 -1 15
+ 1.38535 0 1 sctp 1500 ------- 1 0.0 2.0 -1 16
+ 1.38535 0 1 sctp 1500 ------- 1 0.0 2.0 -1 17
- 1.38535 0 1 sctp 1500 ------- 1 0.0 2.0 -1 15
- 1.38655 0 1 sctp 1500 ------- 1 0.0 2.0 -1 16
- 1.38775 0 1 sctp 1500 ------- 1 0.0 2.0 -1 17
r 1.46415 0 1 sctp 1500 ------- 1 0.0 2.0 -1 13
+ 1.46415 1 2 sctp 1500 ------- 1 0.0 2.0 -1 13
- 1.46415 1 2 sctp 1500 ------- 1 0.0 2.0 -1 13
r 1.46535 0 1 sctp 1500 ------- 1 0.0 2.0 -1 14
+ 1.46535 1 2 sctp 1500 ------- 1 0.0 2.0 -1 14
- 1.46535 1 2 sctp 1500 ------- 1 0.0 2.0 -1 14
r 1.46655 0 1 sctp 1500 ------- 1 0.0 2.0 -1 15
+ 1.46655 1 2 sctp 1500 ------- 1 0.0 2.0 -1 15
- 1.46655 1 2 sctp 1500 ------- 1 0.0 2.0 -1 15
r 1.46775 0 1 sctp 1500 ------- 1 0.0 2.0 -1 16
+ 1.46775 1 2 sctp 1500 ------- 1 0.0 2.0 -1 16
- 1.46775 1 2 sctp 1500 ------- 1 0.0 2.0 -1 16
r 1.46895 0 1 sctp 1500 ------- 1 0.0 2.0 -1 17
+ 1.46895 1 2 sctp 1500 ------- 1 0.0 2.0 -1 17
- 1.46895 1 2 sctp 1500 ------- 1 0.0 2.0 -1 17
r 1.54535 1 2 sctp 1500 ------- 1 0.0 2.0 -1 13
r 1.54655 1 2 sctp 1500 ------- 1 0.0 2.0 -1 14
+ 1.54655 2 1 sctp 48 ------- 0 2.0 0.0 -1 18
- 1.54655 2 1 sctp 48 ------- 0 2.0 0.0 -1 18
r 1.54775 1 2 sctp 1500 ------- 1 0.0 2.0 -1 15
r 1.54895 1 2 sctp 1500 ------- 1 0.0 2.0 -1 16
+ 1.54895 2 1 sctp 48 ------- 0 2.0 0.0 -1 19
- 1.54895 2 1 sctp 48 ------- 0 2.0 0.0 -1 19
r 1.55015 1 2 sctp 1500 ------- 1 0.0 2.0 -1 17
r 1.626589 2 1 sctp 48 ------- 0 2.0 0.0 -1 18
+ 1.626589 1 0 sctp 48 ------- 0 2.0 0.0 -1 18
- 1.626589 1 0 sctp 48 ------- 0 2.0 0.0 -1 18
r 1.628989 2 1 sctp 48 ------- 0 2.0 0.0 -1 19
+ 1.628989 1 0 sctp 48 ------- 0 2.0 0.0 -1 19
- 1.628989 1 0 sctp 48 ------- 0 2.0 0.0 -1 19
r 1.706627 1 0 sctp 48 ------- 0 2.0 0.0 -1 18
+ 1.706627 0 1 sctp 1500 ------- 1 0.0 2.0 -1 20
- 1.706627 0 1 sctp 1500 ------- 1 0.0 2.0 -1 20
+ 1.706627 0 1 sctp 1500 ------- 1 0.0 2.0 -1 21
+ 1.706627 0 1 sctp 1500 ------- 1 0.0 2.0 -1 22
- 1.707827 0 1 sctp 1500 ------- 1 0.0 2.0 -1 21
r 1.709027 1 0 sctp 48 ------- 0 2.0 0.0 -1 19
+ 1.709027 0 1 sctp 1500 ------- 1 0.0 2.0 -1 23
+ 1.709027 0 1 sctp 1500 ------- 1 0.0 2.0 -1 24
+ 1.709027 0 1 sctp 1500 ------- 1 0.0 2.0 -1 25
- 1.709027 0 1 sctp 1500 ------- 1 0.0 2.0 -1 22
- 1.710227 0 1 sctp 1500 ------- 1 0.0 2.0 -1 23
- 1.711427 0 1 sctp 1500 ------- 1 0.0 2.0 -1 24
- 1.712627 0 1 sctp 1500 ------- 1 0.0 2.0 -1 25
+ 1.75015 2 1 sctp 48 ------- 0 2.0 0.0 -1 26
- 1.75015 2 1 sctp 48 ------- 0 2.0 0.0 -1 26
r 1.787827 0 1 sctp 1500 ------- 1 0.0 2.0 -1 20
+ 1.787827 1 2 sctp 1500 ------- 1 0.0 2.0 -1 20
- 1.787827 1 2 sctp 1500 ------- 1 0.0 2.0 -1 20
r 1.789027 0 1 sctp 1500 ------- 1 0.0 2.0 -1 21
+ 1.789027 1 2 sctp 1500 ------- 1 0.0 2.0 -1 21
- 1.789027 1 2 sctp 1500 ------- 1 0.0 2.0 -1 21
r 1.790227 0 1 sctp 1500 ------- 1 0.0 2.0 -1 22
+ 1.790227 1 2 sctp 1500 ------- 1 0.0 2.0 -1 22
- 1.790227 1 2 sctp 1500 ------- 1 0.0 2.0 -1 22
r 1.791427 0 1 sctp 1500 ------- 1 0.0 2.0 -1 23
+ 1.791427 1 2 sctp 1500 ------- 1 0.0 2.0 -1 23
- 1.791427 1 2 sctp 1500 ------- 1 0.0 2.0 -1 23
r 1.792627 0 1 sctp 1500 ------- 1 0.0 2.0 -1 24
+ 1.792627 1 2 sctp 1500 ------- 1 0.0 2.0 -1 24
- 1.792627 1 2 sctp 1500 ------- 1 0.0 2.0 -1 24
r 1.793827 0 1 sctp 1500 ------- 1 0.0 2.0 -1 25
+ 1.793827 1 2 sctp 1500 ------- 1 0.0 2.0 -1 25
- 1.793827 1 2 sctp 1500 ------- 1 0.0 2.0 -1 25
r 1.830189 2 1 sctp 48 ------- 0 2.0 0.0 -1 26
+ 1.830189 1 0 sctp 48 ------- 0 2.0 0.0 -1 26
- 1.830189 1 0 sctp 48 ------- 0 2.0 0.0 -1 26
r 1.869027 1 2 sctp 1500 ------- 1 0.0 2.0 -1 20
r 1.870227 1 2 sctp 1500 ------- 1 0.0 2.0 -1 21
+ 1.870227 2 1 sctp 48 ------- 0 2.0 0.0 -1 27
- 1.870227 2 1 sctp 48 ------- 0 2.0 0.0 -1 27
r 1.871427 1 2 sctp 1500 ------- 1 0.0 2.0 -1 22
r 1.872627 1 2 sctp 1500 ------- 1 0.0 2.0 -1 23
+ 1.872627 2 1 sctp 48 ------- 0 2.0 0.0 -1 28
- 1.872627 2 1 sctp 48 ------- 0 2.0 0.0 -1 28
r 1.873827 1 2 sctp 1500 ------- 1 0.0 2.0 -1 24
r 1.875027 1 2 sctp 1500 ------- 1 0.0 2.0 -1 25
+ 1.875027 2 1 sctp 48 ------- 0 2.0 0.0 -1 29
- 1.875027 2 1 sctp 48 ------- 0 2.0 0.0 -1 29
r 1.910227 1 0 sctp 48 ------- 0 2.0 0.0 -1 26
+ 1.910227 0 1 sctp 1500 ------- 1 0.0 2.0 -1 30
- 1.910227 0 1 sctp 1500 ------- 1 0.0 2.0 -1 30
+ 1.910227 0 1 sctp 1500 ------- 1 0.0 2.0 -1 31
- 1.911427 0 1 sctp 1500 ------- 1 0.0 2.0 -1 31
r 1.950266 2 1 sctp 48 ------- 0 2.0 0.0 -1 27
+ 1.950266 1 0 sctp 48 ------- 0 2.0 0.0 -1 27
- 1.950266 1 0 sctp 48 ------- 0 2.0 0.0 -1 27
r 1.952666 2 1 sctp 48 ------- 0 2.0 0.0 -1 28
+ 1.952666 1 0 sctp 48 ------- 0 2.0 0.0 -1 28
- 1.952666 1 0 sctp 48 ------- 0 2.0 0.0 -1 28
r 1.955066 2 1 sctp 48 ------- 0 2.0 0.0 -1 29
+ 1.955066 1 0 sctp 48 ------- 0 2.0 0.0 -1 29
- 1.955066 1 0 sctp 48 ------- 0 2.0 0.0 -1 29
r 1.991427 0 1 sctp 1500 ------- 1 0.0 2.0 -1 30
+ 1.991427 1 2 sctp 1500 ------- 1 0.0 2.0 -1 30
- 1.991427 1 2 sctp 1500 ------- 1 0.0 2.0 -1 30
r 1.992627 0 1 sctp 1500 ------- 1 0.0 2.0 -1 31
+ 1.992627 1 2 sctp 1500 ------- 1 0.0 2.0 -1 31
- 1.992627 1 2 sctp 1500 ------- 1 0.0 2.0 -1 31
r 2.030304 1 0 sctp 48 ------- 0 2.0 0.0 -1 27
+ 2.030304 0 1 sctp 1500 ------- 1 0.0 2.0 -1 32
- 2.030304 0 1 sctp 1500 ------- 1 0.0 2.0 -1 32
+ 2.030304 0 1 sctp 1500 ------- 1 0.0 2.0 -1 33
+ 2.030304 0 1 sctp 1500 ------- 1 0.0 2.0 -1 34
- 2.031504 0 1 sctp 1500 ------- 1 0.0 2.0 -1 33
- 2.032704 0 1 sctp 1500 ------- 1 0.0 2.0 -1 34
r 2.032704 1 0 sctp 48 ------- 0 2.0 0.0 -1 28
+ 2.032704 0 1 sctp 1500 ------- 1 0.0 2.0 -1 35
+ 2.032704 0 1 sctp 1500 ------- 1 0.0 2.0 -1 36
+ 2.032704 0 1 sctp 1500 ------- 1 0.0 2.0 -1 37
- 2.033904 0 1 sctp 1500 ------- 1 0.0 2.0 -1 35
- 2.035104 0 1 sctp 1500 ------- 1 0.0 2.0 -1 36
r 2.035104 1 0 sctp 48 ------- 0 2.0 0.0 -1 29
+ 2.035104 0 1 sctp 1500 ------- 1 0.0 2.0 -1 38
+ 2.035104 0 1 sctp 1500 ------- 1 0.0 2.0 -1 39
+ 2.035104 0 1 sctp 1500 ------- 1 0.0 2.0 -1 40
- 2.036304 0 1 sctp 1500 ------- 1 0.0 2.0 -1 37
- 2.037504 0 1 sctp 1500 ------- 1 0.0 2.0 -1 38
- 2.038704 0 1 sctp 1500 ------- 1 0.0 2.0 -1 39
- 2.039904 0 1 sctp 1500 ------- 1 0.0 2.0 -1 40
r 2.072627 1 2 sctp 1500 ------- 1 0.0 2.0 -1 30
r 2.073827 1 2 sctp 1500 ------- 1 0.0 2.0 -1 31
+ 2.073827 2 1 sctp 48 ------- 0 2.0 0.0 -1 41
- 2.073827 2 1 sctp 48 ------- 0 2.0 0.0 -1 41
r 2.111504 0 1 sctp 1500 ------- 1 0.0 2.0 -1 32
+ 2.111504 1 2 sctp 1500 ------- 1 0.0 2.0 -1 32
- 2.111504 1 2 sctp 1500 ------- 1 0.0 2.0 -1 32
r 2.112704 0 1 sctp 1500 ------- 1 0.0 2.0 -1 33
+ 2.112704 1 2 sctp 1500 ------- 1 0.0 2.0 -1 33
- 2.112704 1 2 sctp 1500 ------- 1 0.0 2.0 -1 33
r 2.113904 0 1 sctp 1500 ------- 1 0.0 2.0 -1 34
+ 2.113904 1 2 sctp 1500 ------- 1 0.0 2.0 -1 34
- 2.113904 1 2 sctp 1500 ------- 1 0.0 2.0 -1 34
r 2.115104 0 1 sctp 1500 ------- 1 0.0 2.0 -1 35
+ 2.115104 1 2 sctp 1500 ------- 1 0.0 2.0 -1 35
- 2.115104 1 2 sctp 1500 ------- 1 0.0 2.0 -1 35
r 2.116304 0 1 sctp 1500 ------- 1 0.0 2.0 -1 36
+ 2.116304 1 2 sctp 1500 ------- 1 0.0 2.0 -1 36
- 2.116304 1 2 sctp 1500 ------- 1 0.0 2.0 -1 36
r 2.117504 0 1 sctp 1500 ------- 1 0.0 2.0 -1 37
+ 2.117504 1 2 sctp 1500 ------- 1 0.0 2.0 -1 37
- 2.117504 1 2 sctp 1500 ------- 1 0.0 2.0 -1 37
r 2.118704 0 1 sctp 1500 ------- 1 0.0 2.0 -1 38
+ 2.118704 1 2 sctp 1500 ------- 1 0.0 2.0 -1 38
- 2.118704 1 2 sctp 1500 ------- 1 0.0 2.0 -1 38
r 2.119904 0 1 sctp 1500 ------- 1 0.0 2.0 -1 39
+ 2.119904 1 2 sctp 1500 ------- 1 0.0 2.0 -1 39
- 2.119904 1 2 sctp 1500 ------- 1 0.0 2.0 -1 39
r 2.121104 0 1 sctp 1500 ------- 1 0.0 2.0 -1 40
+ 2.121104 1 2 sctp 1500 ------- 1 0.0 2.0 -1 40
- 2.121104 1 2 sctp 1500 ------- 1 0.0 2.0 -1 40
r 2.153866 2 1 sctp 48 ------- 0 2.0 0.0 -1 41
+ 2.153866 1 0 sctp 48 ------- 0 2.0 0.0 -1 41
- 2.153866 1 0 sctp 48 ------- 0 2.0 0.0 -1 41
r 2.192704 1 2 sctp 1500 ------- 1 0.0 2.0 -1 32
r 2.193904 1 2 sctp 1500 ------- 1 0.0 2.0 -1 33
+ 2.193904 2 1 sctp 48 ------- 0 2.0 0.0 -1 42
- 2.193904 2 1 sctp 48 ------- 0 2.0 0.0 -1 42
r 2.195104 1 2 sctp 1500 ------- 1 0.0 2.0 -1 34
r 2.196304 1 2 sctp 1500 ------- 1 0.0 2.0 -1 35
+ 2.196304 2 1 sctp 48 ------- 0 2.0 0.0 -1 43
- 2.196304 2 1 sctp 48 ------- 0 2.0 0.0 -1 43
r 2.197504 1 2 sctp 1500 ------- 1 0.0 2.0 -1 36
r 2.198704 1 2 sctp 1500 ------- 1 0.0 2.0 -1 37
+ 2.198704 2 1 sctp 48 ------- 0 2.0 0.0 -1 44
- 2.198704 2 1 sctp 48 ------- 0 2.0 0.0 -1 44
r 2.199904 1 2 sctp 1500 ------- 1 0.0 2.0 -1 38
r 2.201104 1 2 sctp 1500 ------- 1 0.0 2.0 -1 39
+ 2.201104 2 1 sctp 48 ------- 0 2.0 0.0 -1 45
- 2.201104 2 1 sctp 48 ------- 0 2.0 0.0 -1 45
r 2.202304 1 2 sctp 1500 ------- 1 0.0 2.0 -1 40
r 2.233904 1 0 sctp 48 ------- 0 2.0 0.0 -1 41
+ 2.233904 0 1 sctp 1500 ------- 1 0.0 2.0 -1 46
- 2.233904 0 1 sctp 1500 ------- 1 0.0 2.0 -1 46
+ 2.233904 0 1 sctp 1500 ------- 1 0.0 2.0 -1 47
+ 2.233904 0 1 sctp 1500 ------- 1 0.0 2.0 -1 48
- 2.235104 0 1 sctp 1500 ------- 1 0.0 2.0 -1 47
- 2.236304 0 1 sctp 1500 ------- 1 0.0 2.0 -1 48
r 2.273942 2 1 sctp 48 ------- 0 2.0 0.0 -1 42
+ 2.273942 1 0 sctp 48 ------- 0 2.0 0.0 -1 42
- 2.273942 1 0 sctp 48 ------- 0 2.0 0.0 -1 42
r 2.276342 2 1 sctp 48 ------- 0 2.0 0.0 -1 43
+ 2.276342 1 0 sctp 48 ------- 0 2.0 0.0 -1 43
- 2.276342 1 0 sctp 48 ------- 0 2.0 0.0 -1 43
r 2.278742 2 1 sctp 48 ------- 0 2.0 0.0 -1 44
+ 2.278742 1 0 sctp 48 ------- 0 2.0 0.0 -1 44
- 2.278742 1 0 sctp 48 ------- 0 2.0 0.0 -1 44
r 2.281142 2 1 sctp 48 ------- 0 2.0 0.0 -1 45
+ 2.281142 1 0 sctp 48 ------- 0 2.0 0.0 -1 45
- 2.281142 1 0 sctp 48 ------- 0 2.0 0.0 -1 45
r 2.315104 0 1 sctp 1500 ------- 1 0.0 2.0 -1 46
+ 2.315104 1 2 sctp 1500 ------- 1 0.0 2.0 -1 46
- 2.315104 1 2 sctp 1500 ------- 1 0.0 2.0 -1 46
r 2.316304 0 1 sctp 1500 ------- 1 0.0 2.0 -1 47
+ 2.316304 1 2 sctp 1500 ------- 1 0.0 2.0 -1 47
- 2.316304 1 2 sctp 1500 ------- 1 0.0 2.0 -1 47
r 2.317504 0 1 sctp 1500 ------- 1 0.0 2.0 -1 48
+ 2.317504 1 2 sctp 1500 ------- 1 0.0 2.0 -1 48
- 2.317504 1 2 sctp 1500 ------- 1 0.0 2.0 -1 48
r 2.353981 1 0 sctp 48 ------- 0 2.0 0.0 -1 42
+ 2.353981 0 1 sctp 1500 ------- 1 0.0 2.0 -1 49
- 2.353981 0 1 sctp 1500 ------- 1 0.0 2.0 -1 49
+ 2.353981 0 1 sctp 1500 ------- 1 0.0 2.0 -1 50
+ 2.353981 0 1 sctp 1500 ------- 1 0.0 2.0 -1 51
- 2.355181 0 1 sctp 1500 ------- 1 0.0 2.0 -1 50
r 2.356381 1 0 sctp 48 ------- 0 2.0 0.0 -1 43
+ 2.356381 0 1 sctp 1500 ------- 1 0.0 2.0 -1 52
+ 2.356381 0 1 sctp 1500 ------- 1 0.0 2.0 -1 53
+ 2.356381 0 1 sctp 1500 ------- 1 0.0 2.0 -1 54
- 2.356381 0 1 sctp 1500 ------- 1 0.0 2.0 -1 51
- 2.357581 0 1 sctp 1500 ------- 1 0.0 2.0 -1 52
r 2.358781 1 0 sctp 48 ------- 0 2.0 0.0 -1 44
+ 2.358781 0 1 sctp 1500 ------- 1 0.0 2.0 -1 55
+ 2.358781 0 1 sctp 1500 ------- 1 0.0 2.0 -1 56
+ 2.358781 0 1 sctp 1500 ------- 1 0.0 2.0 -1 57
- 2.358781 0 1 sctp 1500 ------- 1 0.0 2.0 -1 53
- 2.359981 0 1 sctp 1500 ------- 1 0.0 2.0 -1 54
r 2.361181 1 0 sctp 48 ------- 0 2.0 0.0 -1 45
+ 2.361181 0 1 sctp 1500 ------- 1 0.0 2.0 -1 58
+ 2.361181 0 1 sctp 1500 ------- 1 0.0 2.0 -1 59
+ 2.361181 0 1 sctp 1500 ------- 1 0.0 2.0 -1 60
- 2.361181 0 1 sctp 1500 ------- 1 0.0 2.0 -1 55
- 2.362381 0 1 sctp 1500 ------- 1 0.0 2.0 -1 56
- 2.363581 0 1 sctp 1500 ------- 1 0.0 2.0 -1 57
- 2.364781 0 1 sctp 1500 ------- 1 0.0 2.0 -1 58
- 2.365981 0 1 sctp 1500 ------- 1 0.0 2.0 -1 59
- 2.367181 0 1 sctp 1500 ------- 1 0.0 2.0 -1 60
r 2.396304 1 2 sctp 1500 ------- 1 0.0 2.0 -1 46
+ 2.396304 2 1 sctp 48 ------- 0 2.0 0.0 -1 61
- 2.396304 2 1 sctp 48 ------- 0 2.0 0.0 -1 61
r 2.397504 1 2 sctp 1500 ------- 1 0.0 2.0 -1 47
r 2.398704 1 2 sctp 1500 ------- 1 0.0 2.0 -1 48
+ 2.398704 2 1 sctp 48 ------- 0 2.0 0.0 -1 62
- 2.398704 2 1 sctp 48 ------- 0 2.0 0.0 -1 62
r 2.435181 0 1 sctp 1500 ------- 1 0.0 2.0 -1 49
+ 2.435181 1 2 sctp 1500 ------- 1 0.0 2.0 -1 49
- 2.435181 1 2 sctp 1500 ------- 1 0.0 2.0 -1 49
r 2.436381 0 1 sctp 1500 ------- 1 0.0 2.0 -1 50
+ 2.436381 1 2 sctp 1500 ------- 1 0.0 2.0 -1 50
- 2.436381 1 2 sctp 1500 ------- 1 0.0 2.0 -1 50
r 2.437581 0 1 sctp 1500 ------- 1 0.0 2.0 -1 51
+ 2.437581 1 2 sctp 1500 ------- 1 0.0 2.0 -1 51
- 2.437581 1 2 sctp 1500 ------- 1 0.0 2.0 -1 51
r 2.438781 0 1 sctp 1500 ------- 1 0.0 2.0 -1 52
+ 2.438781 1 2 sctp 1500 ------- 1 0.0 2.0 -1 52
- 2.438781 1 2 sctp 1500 ------- 1 0.0 2.0 -1 52
r 2.439981 0 1 sctp 1500 ------- 1 0.0 2.0 -1 53
+ 2.439981 1 2 sctp 1500 ------- 1 0.0 2.0 -1 53
- 2.439981 1 2 sctp 1500 ------- 1 0.0 2.0 -1 53
r 2.441181 0 1 sctp 1500 ------- 1 0.0 2.0 -1 54
+ 2.441181 1 2 sctp 1500 ------- 1 0.0 2.0 -1 54
- 2.441181 1 2 sctp 1500 ------- 1 0.0 2.0 -1 54
r 2.442381 0 1 sctp 1500 ------- 1 0.0 2.0 -1 55
+ 2.442381 1 2 sctp 1500 ------- 1 0.0 2.0 -1 55
- 2.442381 1 2 sctp 1500 ------- 1 0.0 2.0 -1 55
r 2.443581 0 1 sctp 1500 ------- 1 0.0 2.0 -1 56
+ 2.443581 1 2 sctp 1500 ------- 1 0.0 2.0 -1 56
- 2.443581 1 2 sctp 1500 ------- 1 0.0 2.0 -1 56
r 2.444781 0 1 sctp 1500 ------- 1 0.0 2.0 -1 57
+ 2.444781 1 2 sctp 1500 ------- 1 0.0 2.0 -1 57
- 2.444781 1 2 sctp 1500 ------- 1 0.0 2.0 -1 57
r 2.445981 0 1 sctp 1500 ------- 1 0.0 2.0 -1 58
+ 2.445981 1 2 sctp 1500 ------- 1 0.0 2.0 -1 58
- 2.445981 1 2 sctp 1500 ------- 1 0.0 2.0 -1 58
r 2.447181 0 1 sctp 1500 ------- 1 0.0 2.0 -1 59
+ 2.447181 1 2 sctp 1500 ------- 1 0.0 2.0 -1 59
- 2.447181 1 2 sctp 1500 ------- 1 0.0 2.0 -1 59
r 2.448381 0 1 sctp 1500 ------- 1 0.0 2.0 -1 60
+ 2.448381 1 2 sctp 1500 ------- 1 0.0 2.0 -1 60
- 2.448381 1 2 sctp 1500 ------- 1 0.0 2.0 -1 60
r 2.476342 2 1 sctp 48 ------- 0 2.0 0.0 -1 61
+ 2.476342 1 0 sctp 48 ------- 0 2.0 0.0 -1 61
- 2.476342 1 0 sctp 48 ------- 0 2.0 0.0 -1 61
r 2.478742 2 1 sctp 48 ------- 0 2.0 0.0 -1 62
+ 2.478742 1 0 sctp 48 ------- 0 2.0 0.0 -1 62
- 2.478742 1 0 sctp 48 ------- 0 2.0 0.0 -1 62
r 2.516381 1 2 sctp 1500 ------- 1 0.0 2.0 -1 49
r 2.517581 1 2 sctp 1500 ------- 1 0.0 2.0 -1 50
+ 2.517581 2 1 sctp 48 ------- 0 2.0 0.0 -1 63
- 2.517581 2 1 sctp 48 ------- 0 2.0 0.0 -1 63
r 2.518781 1 2 sctp 1500 ------- 1 0.0 2.0 -1 51
r 2.519981 1 2 sctp 1500 ------- 1 0.0 2.0 -1 52
+ 2.519981 2 1 sctp 48 ------- 0 2.0 0.0 -1 64
- 2.519981 2 1 sctp 48 ------- 0 2.0 0.0 -1 64
r 2.521181 1 2 sctp 1500 ------- 1 0.0 2.0 -1 53
r 2.522381 1 2 sctp 1500 ------- 1 0.0 2.0 -1 54
+ 2.522381 2 1 sctp 48 ------- 0 2.0 0.0 -1 65
- 2.522381 2 1 sctp 48 ------- 0 2.0 0.0 -1 65
r 2.523581 1 2 sctp 1500 ------- 1 0.0 2.0 -1 55
r 2.524781 1 2 sctp 1500 ------- 1 0.0 2.0 -1 56
+ 2.524781 2 1 sctp 48 ------- 0 2.0 0.0 -1 66
- 2.524781 2 1 sctp 48 ------- 0 2.0 0.0 -1 66
r 2.525981 1 2 sctp 1500 ------- 1 0.0 2.0 -1 57
r 2.527181 1 2 sctp 1500 ------- 1 0.0 2.0 -1 58
+ 2.527181 2 1 sctp 48 ------- 0 2.0 0.0 -1 67
- 2.527181 2 1 sctp 48 ------- 0 2.0 0.0 -1 67
r 2.528381 1 2 sctp 1500 ------- 1 0.0 2.0 -1 59
r 2.529581 1 2 sctp 1500 ------- 1 0.0 2.0 -1 60
+ 2.529581 2 1 sctp 48 ------- 0 2.0 0.0 -1 68
- 2.529581 2 1 sctp 48 ------- 0 2.0 0.0 -1 68
r 2.556381 1 0 sctp 48 ------- 0 2.0 0.0 -1 61
+ 2.556381 0 1 sctp 1500 ------- 1 0.0 2.0 -1 69
- 2.556381 0 1 sctp 1500 ------- 1 0.0 2.0 -1 69
+ 2.556381 0 1 sctp 1500 ------- 1 0.0 2.0 -1 70
+ 2.556381 0 1 sctp 1500 ------- 1 0.0 2.0 -1 71
- 2.557581 0 1 sctp 1500 ------- 1 0.0 2.0 -1 70
r 2.558781 1 0 sctp 48 ------- 0 2.0 0.0 -1 62
+ 2.558781 0 1 sctp 1500 ------- 1 0.0 2.0 -1 72
+ 2.558781 0 1 sctp 1500 ------- 1 0.0 2.0 -1 73
+ 2.558781 0 1 sctp 1500 ------- 1 0.0 2.0 -1 74
- 2.558781 0 1 sctp 1500 ------- 1 0.0 2.0 -1 71
- 2.559981 0 1 sctp 1500 ------- 1 0.0 2.0 -1 72
- 2.561181 0 1 sctp 1500 ------- 1 0.0 2.0 -1 73
- 2.562381 0 1 sctp 1500 ------- 1 0.0 2.0 -1 74
r 2.597619 2 1 sctp 48 ------- 0 2.0 0.0 -1 63
+ 2.597619 1 0 sctp 48 ------- 0 2.0 0.0 -1 63
- 2.597619 1 0 sctp 48 ------- 0 2.0 0.0 -1 63
r 2.600019 2 1 sctp 48 ------- 0 2.0 0.0 -1 64
+ 2.600019 1 0 sctp 48 ------- 0 2.0 0.0 -1 64
- 2.600019 1 0 sctp 48 ------- 0 2.0 0.0 -1 64
r 2.602419 2 1 sctp 48 ------- 0 2.0 0.0 -1 65
+ 2.602419 1 0 sctp 48 ------- 0 2.0 0.0 -1 65
- 2.602419 1 0 sctp 48 ------- 0 2.0 0.0 -1 65
r 2.604819 2 1 sctp 48 ------- 0 2.0 0.0 -1 66
+ 2.604819 1 0 sctp 48 ------- 0 2.0 0.0 -1 66
- 2.604819 1 0 sctp 48 ------- 0 2.0 0.0 -1 66
r 2.607219 2 1 sctp 48 ------- 0 2.0 0.0 -1 67
+ 2.607219 1 0 sctp 48 ------- 0 2.0 0.0 -1 67
- 2.607219 1 0 sctp 48 ------- 0 2.0 0.0 -1 67
r 2.609619 2 1 sctp 48 ------- 0 2.0 0.0 -1 68
+ 2.609619 1 0 sctp 48 ------- 0 2.0 0.0 -1 68
- 2.609619 1 0 sctp 48 ------- 0 2.0 0.0 -1 68
r 2.637581 0 1 sctp 1500 ------- 1 0.0 2.0 -1 69
+ 2.637581 1 2 sctp 1500 ------- 1 0.0 2.0 -1 69
- 2.637581 1 2 sctp 1500 ------- 1 0.0 2.0 -1 69
r 2.638781 0 1 sctp 1500 ------- 1 0.0 2.0 -1 70
+ 2.638781 1 2 sctp 1500 ------- 1 0.0 2.0 -1 70
- 2.638781 1 2 sctp 1500 ------- 1 0.0 2.0 -1 70
r 2.639981 0 1 sctp 1500 ------- 1 0.0 2.0 -1 71
+ 2.639981 1 2 sctp 1500 ------- 1 0.0 2.0 -1 71
- 2.639981 1 2 sctp 1500 ------- 1 0.0 2.0 -1 71
r 2.641181 0 1 sctp 1500 ------- 1 0.0 2.0 -1 72
+ 2.641181 1 2 sctp 1500 ------- 1 0.0 2.0 -1 72
- 2.641181 1 2 sctp 1500 ------- 1 0.0 2.0 -1 72
r 2.642381 0 1 sctp 1500 ------- 1 0.0 2.0 -1 73
+ 2.642381 1 2 sctp 1500 ------- 1 0.0 2.0 -1 73
- 2.642381 1 2 sctp 1500 ------- 1 0.0 2.0 -1 73
r 2.643581 0 1 sctp 1500 ------- 1 0.0 2.0 -1 74
+ 2.643581 1 2 sctp 1500 ------- 1 0.0 2.0 -1 74
- 2.643581 1 2 sctp 1500 ------- 1 0.0 2.0 -1 74
r 2.677658 1 0 sctp 48 ------- 0 2.0 0.0 -1 63
+ 2.677658 0 1 sctp 1500 ------- 1 0.0 2.0 -1 75
- 2.677658 0 1 sctp 1500 ------- 1 0.0 2.0 -1 75
+ 2.677658 0 1 sctp 1500 ------- 1 0.0 2.0 -1 76
+ 2.677658 0 1 sctp 1500 ------- 1 0.0 2.0 -1 77
- 2.678858 0 1 sctp 1500 ------- 1 0.0 2.0 -1 76
r 2.680058 1 0 sctp 48 ------- 0 2.0 0.0 -1 64
+ 2.680058 0 1 sctp 1500 ------- 1 0.0 2.0 -1 78
+ 2.680058 0 1 sctp 1500 ------- 1 0.0 2.0 -1 79
+ 2.680058 0 1 sctp 1500 ------- 1 0.0 2.0 -1 80
- 2.680058 0 1 sctp 1500 ------- 1 0.0 2.0 -1 77
- 2.681258 0 1 sctp 1500 ------- 1 0.0 2.0 -1 78
r 2.682458 1 0 sctp 48 ------- 0 2.0 0.0 -1 65
+ 2.682458 0 1 sctp 1500 ------- 1 0.0 2.0 -1 81
+ 2.682458 0 1 sctp 1500 ------- 1 0.0 2.0 -1 82
+ 2.682458 0 1 sctp 1500 ------- 1 0.0 2.0 -1 83
- 2.682458 0 1 sctp 1500 ------- 1 0.0 2.0 -1 79
- 2.683658 0 1 sctp 1500 ------- 1 0.0 2.0 -1 80
r 2.684858 1 0 sctp 48 ------- 0 2.0 0.0 -1 66
+ 2.684858 0 1 sctp 1500 ------- 1 0.0 2.0 -1 84
+ 2.684858 0 1 sctp 1500 ------- 1 0.0 2.0 -1 85
+ 2.684858 0 1 sctp 1500 ------- 1 0.0 2.0 -1 86
- 2.684858 0 1 sctp 1500 ------- 1 0.0 2.0 -1 81
- 2.686058 0 1 sctp 1500 ------- 1 0.0 2.0 -1 82
r 2.687258 1 0 sctp 48 ------- 0 2.0 0.0 -1 67
+ 2.687258 0 1 sctp 1500 ------- 1 0.0 2.0 -1 87
+ 2.687258 0 1 sctp 1500 ------- 1 0.0 2.0 -1 88
+ 2.687258 0 1 sctp 1500 ------- 1 0.0 2.0 -1 89
- 2.687258 0 1 sctp 1500 ------- 1 0.0 2.0 -1 83
- 2.688458 0 1 sctp 1500 ------- 1 0.0 2.0 -1 84
r 2.689658 1 0 sctp 48 ------- 0 2.0 0.0 -1 68
+ 2.689658 0 1 sctp 1500 ------- 1 0.0 2.0 -1 90
+ 2.689658 0 1 sctp 1500 ------- 1 0.0 2.0 -1 91
+ 2.689658 0 1 sctp 1500 ------- 1 0.0 2.0 -1 92
- 2.689658 0 1 sctp 1500 ------- 1 0.0 2.0 -1 85
- 2.690858 0 1 sctp 1500 ------- 1 0.0 2.0 -1 86
- 2.692058 0 1 sctp 1500 ------- 1 0.0 2.0 -1 87
- 2.693258 0 1 sctp 1500 ------- 1 0.0 2.0 -1 88
- 2.694458 0 1 sctp 1500 ------- 1 0.0 2.0 -1 89
- 2.695658 0 1 sctp 1500 ------- 1 0.0 2.0 -1 90
- 2.696858 0 1 sctp 1500 ------- 1 0.0 2.0 -1 91
- 2.698058 0 1 sctp 1500 ------- 1 0.0 2.0 -1 92
r 2.718781 1 2 sctp 1500 ------- 1 0.0 2.0 -1 69
r 2.719981 1 2 sctp 1500 ------- 1 0.0 2.0 -1 70
+ 2.719981 2 1 sctp 48 ------- 0 2.0 0.0 -1 93
- 2.719981 2 1 sctp 48 ------- 0 2.0 0.0 -1 93
r 2.721181 1 2 sctp 1500 ------- 1 0.0 2.0 -1 71
r 2.722381 1 2 sctp 1500 ------- 1 0.0 2.0 -1 72
+ 2.722381 2 1 sctp 48 ------- 0 2.0 0.0 -1 94
- 2.722381 2 1 sctp 48 ------- 0 2.0 0.0 -1 94
r 2.723581 1 2 sctp 1500 ------- 1 0.0 2.0 -1 73
r 2.724781 1 2 sctp 1500 ------- 1 0.0 2.0 -1 74
+ 2.724781 2 1 sctp 48 ------- 0 2.0 0.0 -1 95
- 2.724781 2 1 sctp 48 ------- 0 2.0 0.0 -1 95
r 2.758858 0 1 sctp 1500 ------- 1 0.0 2.0 -1 75
+ 2.758858 1 2 sctp 1500 ------- 1 0.0 2.0 -1 75
- 2.758858 1 2 sctp 1500 ------- 1 0.0 2.0 -1 75
r 2.760058 0 1 sctp 1500 ------- 1 0.0 2.0 -1 76
+ 2.760058 1 2 sctp 1500 ------- 1 0.0 2.0 -1 76
- 2.760058 1 2 sctp 1500 ------- 1 0.0 2.0 -1 76
r 2.761258 0 1 sctp 1500 ------- 1 0.0 2.0 -1 77
+ 2.761258 1 2 sctp 1500 ------- 1 0.0 2.0 -1 77
- 2.761258 1 2 sctp 1500 ------- 1 0.0 2.0 -1 77
r 2.762458 0 1 sctp 1500 ------- 1 0.0 2.0 -1 78
+ 2.762458 1 2 sctp 1500 ------- 1 0.0 2.0 -1 78
- 2.762458 1 2 sctp 1500 ------- 1 0.0 2.0 -1 78
r 2.763658 0 1 sctp 1500 ------- 1 0.0 2.0 -1 79
+ 2.763658 1 2 sctp 1500 ------- 1 0.0 2.0 -1 79
- 2.763658 1 2 sctp 1500 ------- 1 0.0 2.0 -1 79
r 2.764858 0 1 sctp 1500 ------- 1 0.0 2.0 -1 80
+ 2.764858 1 2 sctp 1500 ------- 1 0.0 2.0 -1 80
- 2.764858 1 2 sctp 1500 ------- 1 0.0 2.0 -1 80
r 2.766058 0 1 sctp 1500 ------- 1 0.0 2.0 -1 81
+ 2.766058 1 2 sctp 1500 ------- 1 0.0 2.0 -1 81
- 2.766058 1 2 sctp 1500 ------- 1 0.0 2.0 -1 81
r 2.767258 0 1 sctp 1500 ------- 1 0.0 2.0 -1 82
+ 2.767258 1 2 sctp 1500 ------- 1 0.0 2.0 -1 82
- 2.767258 1 2 sctp 1500 ------- 1 0.0 2.0 -1 82
r 2.768458 0 1 sctp 1500 ------- 1 0.0 2.0 -1 83
+ 2.768458 1 2 sctp 1500 ------- 1 0.0 2.0 -1 83
- 2.768458 1 2 sctp 1500 ------- 1 0.0 2.0 -1 83
r 2.769658 0 1 sctp 1500 ------- 1 0.0 2.0 -1 84
+ 2.769658 1 2 sctp 1500 ------- 1 0.0 2.0 -1 84
- 2.769658 1 2 sctp 1500 ------- 1 0.0 2.0 -1 84
r 2.770858 0 1 sctp 1500 ------- 1 0.0 2.0 -1 85
+ 2.770858 1 2 sctp 1500 ------- 1 0.0 2.0 -1 85
- 2.770858 1 2 sctp 1500 ------- 1 0.0 2.0 -1 85
r 2.772058 0 1 sctp 1500 ------- 1 0.0 2.0 -1 86
+ 2.772058 1 2 sctp 1500 ------- 1 0.0 2.0 -1 86
- 2.772058 1 2 sctp 1500 ------- 1 0.0 2.0 -1 86
r 2.773258 0 1 sctp 1500 ------- 1 0.0 2.0 -1 87
+ 2.773258 1 2 sctp 1500 ------- 1 0.0 2.0 -1 87
- 2.773258 1 2 sctp 1500 ------- 1 0.0 2.0 -1 87
r 2.774458 0 1 sctp 1500 ------- 1 0.0 2.0 -1 88
+ 2.774458 1 2 sctp 1500 ------- 1 0.0 2.0 -1 88
- 2.774458 1 2 sctp 1500 ------- 1 0.0 2.0 -1 88
r 2.775658 0 1 sctp 1500 ------- 1 0.0 2.0 -1 89
+ 2.775658 1 2 sctp 1500 ------- 1 0.0 2.0 -1 89
- 2.775658 1 2 sctp 1500 ------- 1 0.0 2.0 -1 89
r 2.776858 0 1 sctp 1500 ------- 1 0.0 2.0 -1 90
+ 2.776858 1 2 sctp 1500 ------- 1 0.0 2.0 -1 90
- 2.776858 1 2 sctp 1500 ------- 1 0.0 2.0 -1 90
r 2.778058 0 1 sctp 1500 ------- 1 0.0 2.0 -1 91
+ 2.778058 1 2 sctp 1500 ------- 1 0.0 2.0 -1 91
- 2.778058 1 2 sctp 1500 ------- 1 0.0 2.0 -1 91
r 2.779258 0 1 sctp 1500 ------- 1 0.0 2.0 -1 92
+ 2.779258 1 2 sctp 1500 ------- 1 0.0 2.0 -1 92
- 2.779258 1 2 sctp 1500 ------- 1 0.0 2.0 -1 92
r 2.800019 2 1 sctp 48 ------- 0 2.0 0.0 -1 93
+ 2.800019 1 0 sctp 48 ------- 0 2.0 0.0 -1 93
- 2.800019 1 0 sctp 48 ------- 0 2.0 0.0 -1 93
r 2.802419 2 1 sctp 48 ------- 0 2.0 0.0 -1 94
+ 2.802419 1 0 sctp 48 ------- 0 2.0 0.0 -1 94
- 2.802419 1 0 sctp 48 ------- 0 2.0 0.0 -1 94
r 2.804819 2 1 sctp 48 ------- 0 2.0 0.0 -1 95
+ 2.804819 1 0 sctp 48 ------- 0 2.0 0.0 -1 95
- 2.804819 1 0 sctp 48 ------- 0 2.0 0.0 -1 95
r 2.840058 1 2 sctp 1500 ------- 1 0.0 2.0 -1 75
r 2.841258 1 2 sctp 1500 ------- 1 0.0 2.0 -1 76
+ 2.841258 2 1 sctp 48 ------- 0 2.0 0.0 -1 96
- 2.841258 2 1 sctp 48 ------- 0 2.0 0.0 -1 96
r 2.842458 1 2 sctp 1500 ------- 1 0.0 2.0 -1 77
r 2.843658 1 2 sctp 1500 ------- 1 0.0 2.0 -1 78
+ 2.843658 2 1 sctp 48 ------- 0 2.0 0.0 -1 97
- 2.843658 2 1 sctp 48 ------- 0 2.0 0.0 -1 97
r 2.844858 1 2 sctp 1500 ------- 1 0.0 2.0 -1 79
r 2.846058 1 2 sctp 1500 ------- 1 0.0 2.0 -1 80
+ 2.846058 2 1 sctp 48 ------- 0 2.0 0.0 -1 98
- 2.846058 2 1 sctp 48 ------- 0 2.0 0.0 -1 98
r 2.847258 1 2 sctp 1500 ------- 1 0.0 2.0 -1 81
r 2.848458 1 2 sctp 1500 ------- 1 0.0 2.0 -1 82
+ 2.848458 2 1 sctp 48 ------- 0 2.0 0.0 -1 99
- 2.848458 2 1 sctp 48 ------- 0 2.0 0.0 -1 99
r 2.849658 1 2 sctp 1500 ------- 1 0.0 2.0 -1 83
r 2.850858 1 2 sctp 1500 ------- 1 0.0 2.0 -1 84
+ 2.850858 2 1 sctp 48 ------- 0 2.0 0.0 -1 100
- 2.850858 2 1 sctp 48 ------- 0 2.0 0.0 -1 100
r 2.852058 1 2 sctp 1500 ------- 1 0.0 2.0 -1 85
r 2.853258 1 2 sctp 1500 ------- 1 0.0 2.0 -1 86
+ 2.853258 2 1 sctp 48 ------- 0 2.0 0.0 -1 101
- 2.853258 2 1 sctp 48 ------- 0 2.0 0.0 -1 101
r 2.854458 1 2 sctp 1500 ------- 1 0.0 2.0 -1 87
r 2.855658 1 2 sctp 1500 ------- 1 0.0 2.0 -1 88
+ 2.855658 2 1 sctp 48 ------- 0 2.0 0.0 -1 102
- 2.855658 2 1 sctp 48 ------- 0 2.0 0.0 -1 102
r 2.856858 1 2 sctp 1500 ------- 1 0.0 2.0 -1 89
r 2.858058 1 2 sctp 1500 ------- 1 0.0 2.0 -1 90
+ 2.858058 2 1 sctp 48 ------- 0 2.0 0.0 -1 103
- 2.858058 2 1 sctp 48 ------- 0 2.0 0.0 -1 103
r 2.859258 1 2 sctp 1500 ------- 1 0.0 2.0 -1 91
r 2.860458 1 2 sctp 1500 ------- 1 0.0 2.0 -1 92
+ 2.860458 2 1 sctp 48 ------- 0 2.0 0.0 -1 104
- 2.860458 2 1 sctp 48 ------- 0 2.0 0.0 -1 104
r 2.880058 1 0 sctp 48 ------- 0 2.0 0.0 -1 93
+ 2.880058 0 1 sctp 1500 ------- 1 0.0 2.0 -1 105
- 2.880058 0 1 sctp 1500 ------- 1 0.0 2.0 -1 105
+ 2.880058 0 1 sctp 1500 ------- 1 0.0 2.0 -1 106
+ 2.880058 0 1 sctp 1500 ------- 1 0.0 2.0 -1 107
- 2.881258 0 1 sctp 1500 ------- 1 0.0 2.0 -1 106
r 2.882458 1 0 sctp 48 ------- 0 2.0 0.0 -1 94
+ 2.882458 0 1 sctp 1500 ------- 1 0.0 2.0 -1 108
+ 2.882458 0 1 sctp 1500 ------- 1 0.0 2.0 -1 109
+ 2.882458 0 1 sctp 1500 ------- 1 0.0 2.0 -1 110
- 2.882458 0 1 sctp 1500 ------- 1 0.0 2.0 -1 107
- 2.883658 0 1 sctp 1500 ------- 1 0.0 2.0 -1 108
r 2.884858 1 0 sctp 48 ------- 0 2.0 0.0 -1 95
+ 2.884858 0 1 sctp 808 ------- 1 0.0 2.0 -1 111
+ 2.884858 0 1 sctp 1500 ------- 1 0.0 2.0 -1 112
+ 2.884858 0 1 sctp 1500 ------- 1 0.0 2.0 -1 113
+ 2.884858 0 1 sctp 1500 ------- 1 0.0 2.0 -1 114
- 2.884858 0 1 sctp 1500 ------- 1 0.0 2.0 -1 109
- 2.886058 0 1 sctp 1500 ------- 1 0.0 2.0 -1 110
- 2.887258 0 1 sctp 808 ------- 1 0.0 2.0 -1 111
- 2.887904 0 1 sctp 1500 ------- 1 0.0 2.0 -1 112
- 2.889104 0 1 sctp 1500 ------- 1 0.0 2.0 -1 113
- 2.890304 0 1 sctp 1500 ------- 1 0.0 2.0 -1 114
r 2.921296 2 1 sctp 48 ------- 0 2.0 0.0 -1 96
+ 2.921296 1 0 sctp 48 ------- 0 2.0 0.0 -1 96
- 2.921296 1 0 sctp 48 ------- 0 2.0 0.0 -1 96
r 2.923696 2 1 sctp 48 ------- 0 2.0 0.0 -1 97
+ 2.923696 1 0 sctp 48 ------- 0 2.0 0.0 -1 97
- 2.923696 1 0 sctp 48 ------- 0 2.0 0.0 -1 97
r 2.926096 2 1 sctp 48 ------- 0 2.0 0.0 -1 98
+ 2.926096 1 0 sctp 48 ------- 0 2.0 0.0 -1 98
- 2.926096 1 0 sctp 48 ------- 0 2.0 0.0 -1 98
r 2.928496 2 1 sctp 48 ------- 0 2.0 0.0 -1 99
+ 2.928496 1 0 sctp 48 ------- 0 2.0 0.0 -1 99
- 2.928496 1 0 sctp 48 ------- 0 2.0 0.0 -1 99
r 2.930896 2 1 sctp 48 ------- 0 2.0 0.0 -1 100
+ 2.930896 1 0 sctp 48 ------- 0 2.0 0.0 -1 100
- 2.930896 1 0 sctp 48 ------- 0 2.0 0.0 -1 100
r 2.933296 2 1 sctp 48 ------- 0 2.0 0.0 -1 101
+ 2.933296 1 0 sctp 48 ------- 0 2.0 0.0 -1 101
- 2.933296 1 0 sctp 48 ------- 0 2.0 0.0 -1 101
r 2.935696 2 1 sctp 48 ------- 0 2.0 0.0 -1 102
+ 2.935696 1 0 sctp 48 ------- 0 2.0 0.0 -1 102